 VARIABLES = "X", "Y", "P", "U", "V", "GradPX", "GradPY", "GradPX_res", "GradPY_res", "DivV", "DivV_res", "LapP", "LapP_res", "DivVP", "DivVP_res", "curlV", "curlV_res"
 ZONE I=         253 , J=          21 , DATAPACKING=BLOCK, VARLOCATION=([3-30]=CELLCENTERED)
   -40.0000000   -39.7500000   -39.5000000   -39.2500000   -39.0000000   -38.7500000   -38.5000000   -38.2500000   -38.0000000   -37.7500000   -37.5000000   -37.2500000   -37.0000000   -36.7500000   -36.5000000   -36.2500000   -36.0000000   -35.7500000   -35.5000000   -35.2500000   -35.0000000   -34.7500000   -34.5000000   -34.2500000   -34.0000000   -33.7500000   -33.5000000   -33.2500000   -33.0000000   -32.7500000   -32.5000000   -32.2500000   -32.0000000   -31.7500000   -31.5000000   -31.2500000   -31.0000000   -30.7500000   -30.5000000   -30.2500000   -30.0000000   -29.7500000   -29.5000000   -29.2500000   -29.0000000   -28.7500000   -28.5000000   -28.2500000   -28.0000000   -27.7500000   -27.5000000   -27.2500000   -27.0000000   -26.7500000   -26.5000000   -26.2500000   -26.0000000   -25.7500000   -25.5000000   -25.2500000   -25.0000000   -24.7500000   -24.5000000   -24.2500000   -24.0000000   -23.7500000   -23.5000000   -23.2500000   -23.0000000   -22.7500000   -22.5000000   -22.2500000   -22.0000000   -21.7500000   -21.5000000   -21.2500000   -21.0000000   -20.7500000   -20.5000000   -20.2500000   -20.0000000   -19.7500000   -19.5000000   -19.2500000   -19.0000000   -18.7500000   -18.5000000   -18.2500000   -18.0000000   -17.7500000   -17.5000000   -17.2500000   -17.0000000   -16.7500000   -16.5000000   -16.2500000   -16.0000000   -15.7500000   -15.5000000   -15.2500000
   -15.0000000   -14.7500000   -14.5000000   -14.2500000   -14.0000000   -13.7500000   -13.5000000   -13.2500000   -13.0000000   -12.7500000   -12.5000000   -12.2500000   -12.0000000   -11.7500000   -11.5000000   -11.2500000   -11.0000000   -10.7500000   -10.5000000   -10.2500000   -10.0000000    -9.7500000    -9.5000000    -9.2500000    -9.0000000    -8.7500000    -8.5000000    -8.2500000    -8.0000000    -7.7500000    -7.5000000    -7.2500000    -7.0000000    -6.7500000    -6.5000000    -6.2500000    -6.0000000    -5.7500000    -5.5000000    -5.2500000    -5.0000000    -4.7500000    -4.5000000    -4.2500000    -4.0000000    -3.7500000    -3.5000000    -3.2500000    -3.0000000    -2.7500000    -2.5000000    -2.2500000    -2.0000000    -1.7500000    -1.5000000    -1.2500000    -1.0000000    -0.7500000    -0.5000000    -0.2500000     0.0000000     0.2500000     0.5000000     0.7500000     1.0000000     1.2500000     1.5000000     1.7500000     2.0000000     2.2500000     2.5000000     2.7500000     3.0000000     3.2500000     3.5000000     3.7500000     4.0000000     4.2500000     4.5000000     4.7500000     5.0000000     5.2500000     5.5000000     5.7500000     6.0000000     6.2500000     6.5000000     6.7500000     7.0000000     7.2500000     7.5000000     7.7500000     8.0000000     8.2500000     8.5000000     8.7500000     9.0000000     9.2500000     9.5000000     9.7500000
    10.0000000    10.2610500    10.5176400    10.7653700    11.0000000    11.2175200    11.4142100    11.5867100    11.7320500    11.8477600    11.9318500    11.9828900    12.0000000    12.0000000    12.0000000    12.0000000    12.0000000    12.0000000    12.0000000    12.0000000    12.0000000    12.0000000    12.0000000    12.0000000    12.0000000    12.0000000    12.0000000    12.0000000    12.0000000    12.0000000    12.0000000    12.0000000    12.0000000    12.0000000    12.0000000    12.0000000    12.0000000    12.0000000    12.0000000    12.0000000    12.0000000    12.0000000    12.0000000    12.0000000    12.0000000    12.0000000    12.0000000    12.0000000    12.0000000    12.0000000    12.0000000    12.0000000    12.0000000   -40.0000000   -39.7500000   -39.5000000   -39.2499900   -38.9999800   -38.7499800   -38.4999800   -38.2499800   -37.9999800   -37.7499700   -37.4999700   -37.2499700   -36.9999600   -36.7499600   -36.4999600   -36.2499500   -35.9999500   -35.7499500   -35.4999500   -35.2499400   -34.9999400   -34.7499300   -34.4999300   -34.2499300   -33.9999300   -33.7499200   -33.4999200   -33.2499200   -32.9999200   -32.7499100   -32.4999100   -32.2499000   -31.9999000   -31.7499000   -31.4999000   -31.2498900   -30.9998900   -30.7498900   -30.4998800   -30.2498800   -29.9998800   -29.7498800   -29.4998700   -29.2498700   -28.9998600   -28.7498600   -28.4998600
   -28.2498600   -27.9998500   -27.7498500   -27.4998500   -27.2498400   -26.9998400   -26.7498400   -26.4998300   -26.2498300   -25.9998300   -25.7498200   -25.4998200   -25.2498200   -24.9998100   -24.7498100   -24.4998100   -24.2498100   -23.9998000   -23.7498000   -23.4998000   -23.2497900   -22.9997900   -22.7497900   -22.4997900   -22.2497800   -21.9997800   -21.7497700   -21.4997700   -21.2497700   -20.9997700   -20.7497600   -20.4997600   -20.2497600   -19.9997500   -19.7497500   -19.4997500   -19.2497500   -18.9997400   -18.7497400   -18.4997300   -18.2497300   -17.9997300   -17.7497300   -17.4997200   -17.2497200   -16.9997200   -16.7497100   -16.4997100   -16.2497100   -15.9997100   -15.7497000   -15.4997000   -15.2497000   -14.9996900   -14.7496900   -14.4996900   -14.2496800   -13.9996800   -13.7496800   -13.4996700   -13.2496700   -12.9996700   -12.7496600   -12.4996600   -12.2496600   -11.9996600   -11.7496500   -11.4996500   -11.2496500   -10.9996400   -10.7496400   -10.4996400   -10.2496300    -9.9996320    -9.7496290    -9.4996260    -9.2496230    -8.9996200    -8.7496170    -8.4996140    -8.2496100    -7.9996070    -7.7496050    -7.4996010    -7.2495980    -6.9995950    -6.7495920    -6.4995890    -6.2495860    -5.9995830    -5.7495790    -5.4995770    -5.2495740    -4.9995700    -4.7495680    -4.4995650    -4.2495610    -3.9995580    -3.7495560    -3.4995520
    -3.2495490    -2.9995460    -2.7495430    -2.4995400    -2.2495370    -1.9995330    -1.7495310    -1.4995280    -1.2495240    -0.9995219    -0.7495186    -0.4995150    -0.2495126     0.0004907     0.2504939     0.5004967     0.7504999     1.0005030     1.2505060     1.5005090     1.7505120     2.0005150     2.2505180     2.5005220     2.7505250     3.0005280     3.2505310     3.5005340     3.7505370     4.0005400     4.2505430     4.5005460     4.7505490     5.0005520     5.2505550     5.5005580     5.7505610     6.0005640     6.2505670     6.5005700     6.7505740     7.0005760     7.2505800     7.5005830     7.7505860     8.0005890     8.2505920     8.5005950     8.7505980     9.0006010     9.2506050     9.5006070     9.7506100    10.0006100    10.2575100    10.5100100    10.7537900    10.9846800    11.1987300    11.3922700    11.5620000    11.7050000    11.8188300    11.9015500    11.9517200    11.9685000    11.9685100    11.9685100    11.9685100    11.9685200    11.9685200    11.9685200    11.9685300    11.9685300    11.9685300    11.9685400    11.9685400    11.9685400    11.9685400    11.9685500    11.9685500    11.9685500    11.9685600    11.9685600    11.9685600    11.9685700    11.9685700    11.9685700    11.9685800    11.9685800    11.9685800    11.9685800    11.9685900    11.9685900    11.9685900    11.9686000    11.9686000    11.9686000    11.9686100    11.9686100
    11.9686100    11.9686100    11.9686200    11.9686200    11.9686200    11.9686300   -40.0000000   -39.7499900   -39.4999900   -39.2499800   -38.9999700   -38.7499700   -38.4999600   -38.2499600   -37.9999500   -37.7499400   -37.4999400   -37.2499300   -36.9999200   -36.7499200   -36.4999100   -36.2499000   -35.9999000   -35.7498900   -35.4998900   -35.2498800   -34.9998800   -34.7498700   -34.4998600   -34.2498600   -33.9998500   -33.7498400   -33.4998400   -33.2498300   -32.9998200   -32.7498200   -32.4998100   -32.2498100   -31.9998000   -31.7497900   -31.4997900   -31.2497800   -30.9997800   -30.7497700   -30.4997600   -30.2497600   -29.9997500   -29.7497400   -29.4997400   -29.2497300   -28.9997300   -28.7497200   -28.4997100   -28.2497100   -27.9997000   -27.7496900   -27.4996900   -27.2496800   -26.9996800   -26.7496700   -26.4996600   -26.2496600   -25.9996500   -25.7496500   -25.4996400   -25.2496300   -24.9996300   -24.7496200   -24.4996200   -24.2496100   -23.9996000   -23.7496000   -23.4995900   -23.2495800   -22.9995800   -22.7495700   -22.4995700   -22.2495600   -21.9995500   -21.7495500   -21.4995400   -21.2495300   -20.9995300   -20.7495200   -20.4995200   -20.2495100   -19.9995000   -19.7495000   -19.4994900   -19.2494900   -18.9994800   -18.7494700   -18.4994700   -18.2494600   -17.9994500   -17.7494500   -17.4994400   -17.2494300   -16.9994300   -16.7494200
   -16.4994100   -16.2494100   -15.9994000   -15.7494000   -15.4993900   -15.2493800   -14.9993800   -14.7493700   -14.4993600   -14.2493600   -13.9993500   -13.7493500   -13.4993400   -13.2493400   -12.9993300   -12.7493200   -12.4993200   -12.2493100   -11.9993000   -11.7493000   -11.4992900   -11.2492800   -10.9992800   -10.7492700   -10.4992700   -10.2492600    -9.9992550    -9.7492490    -9.4992420    -9.2492360    -8.9992290    -8.7492240    -8.4992180    -8.2492110    -7.9992050    -7.7491990    -7.4991930    -7.2491860    -6.9991800    -6.7491740    -6.4991670    -6.2491610    -5.9991550    -5.7491480    -5.4991430    -5.2491360    -4.9991300    -4.7491240    -4.4991180    -4.2491120    -3.9991060    -3.7491000    -3.4990930    -3.2490870    -2.9990810    -2.7490740    -2.4990690    -2.2490620    -1.9990550    -1.7490500    -1.4990430    -1.2490370    -0.9990312    -0.7490247    -0.4990183    -0.2490125     0.0009942     0.2510006     0.5010064     0.7510128     1.0010190     1.2510250     1.5010310     1.7510370     2.0010430     2.2510500     2.5010560     2.7510620     3.0010690     3.2510750     3.5010810     3.7510870     4.0010930     4.2511000     4.5011060     4.7511120     5.0011180     5.2511240     5.5011310     5.7511370     6.0011430     6.2511490     6.5011550     6.7511620     7.0011680     7.2511740     7.5011800     7.7511860     8.0011930     8.2511990
     8.5012050     8.7512110     9.0012180     9.2512240     9.5012300     9.7512360    10.0012400    10.2535700    10.5015800    10.7410200    10.9678000    11.1780400    11.3681200    11.5348100    11.6752400    11.7870100    11.8682100    11.9174500    11.9338700    11.9338800    11.9338800    11.9338900    11.9338900    11.9339000    11.9339100    11.9339100    11.9339200    11.9339200    11.9339300    11.9339400    11.9339400    11.9339500    11.9339600    11.9339600    11.9339700    11.9339700    11.9339800    11.9339900    11.9339900    11.9340000    11.9340100    11.9340100    11.9340200    11.9340200    11.9340300    11.9340400    11.9340400    11.9340500    11.9340500    11.9340600    11.9340700    11.9340700    11.9340800    11.9340900    11.9340900    11.9341000    11.9341000    11.9341100    11.9341200   -40.0000000   -39.7499900   -39.4999800   -39.2499700   -38.9999600   -38.7499500   -38.4999400   -38.2499300   -37.9999300   -37.7499100   -37.4999100   -37.2499000   -36.9998900   -36.7498800   -36.4998700   -36.2498600   -35.9998500   -35.7498400   -35.4998300   -35.2498200   -34.9998100   -34.7498000   -34.4997900   -34.2497800   -33.9997700   -33.7497700   -33.4997600   -33.2497500   -32.9997400   -32.7497300   -32.4997200   -32.2497100   -31.9997000   -31.7496900   -31.4996800   -31.2496700   -30.9996600   -30.7496500   -30.4996400   -30.2496300   -29.9996200
   -29.7496100   -29.4996100   -29.2496000   -28.9995900   -28.7495800   -28.4995700   -28.2495600   -27.9995500   -27.7495400   -27.4995300   -27.2495200   -26.9995100   -26.7495000   -26.4994900   -26.2494800   -25.9994700   -25.7494600   -25.4994600   -25.2494500   -24.9994400   -24.7494300   -24.4994200   -24.2494100   -23.9994000   -23.7493900   -23.4993800   -23.2493700   -22.9993600   -22.7493500   -22.4993400   -22.2493300   -21.9993200   -21.7493100   -21.4993000   -21.2493000   -20.9992800   -20.7492800   -20.4992700   -20.2492600   -19.9992500   -19.7492400   -19.4992300   -19.2492200   -18.9992100   -18.7492000   -18.4991900   -18.2491800   -17.9991700   -17.7491600   -17.4991500   -17.2491400   -16.9991400   -16.7491300   -16.4991100   -16.2491100   -15.9991000   -15.7490900   -15.4990800   -15.2490700   -14.9990600   -14.7490500   -14.4990400   -14.2490300   -13.9990200   -13.7490100   -13.4990000   -13.2489900   -12.9989800   -12.7489800   -12.4989700   -12.2489600   -11.9989500   -11.7489400   -11.4989300   -11.2489200   -10.9989100   -10.7489000   -10.4988900   -10.2488800    -9.9988730    -9.7488630    -9.4988550    -9.2488450    -8.9988360    -8.7488260    -8.4988160    -8.2488070    -7.9987970    -7.7487880    -7.4987790    -7.2487690    -6.9987600    -6.7487510    -6.4987410    -6.2487320    -5.9987230    -5.7487130    -5.4987030    -5.2486940    -4.9986840
    -4.7486750    -4.4986660    -4.2486570    -3.9986480    -3.7486380    -3.4986280    -3.2486190    -2.9986100    -2.7486000    -2.4985910    -2.2485820    -1.9985720    -1.7485630    -1.4985540    -1.2485440    -0.9985349    -0.7485250    -0.4985155    -0.2485067     0.0015031     0.2515126     0.5015214     0.7515313     1.0015410     1.2515500     1.5015600     1.7515690     2.0015780     2.2515880     2.5015970     2.7516060     3.0016160     3.2516250     3.5016340     3.7516440     4.0016530     4.2516630     4.5016720     4.7516810     5.0016910     5.2517000     5.5017090     5.7517190     6.0017290     6.2517380     6.5017470     6.7517570     7.0017660     7.2517750     7.5017850     7.7517940     8.0018030     8.2518130     8.5018220     8.7518320     9.0018420     9.2518500     9.5018600     9.7518690    10.0018800    10.2491900    10.4922600    10.7269400    10.9492100    11.1552500    11.3415400    11.5048900    11.6425000    11.7520100    11.8315500    11.8797500    11.8957800    11.8957900    11.8958000    11.8958100    11.8958200    11.8958300    11.8958400    11.8958500    11.8958600    11.8958700    11.8958700    11.8958800    11.8958900    11.8959000    11.8959100    11.8959200    11.8959300    11.8959400    11.8959500    11.8959600    11.8959700    11.8959800    11.8959900    11.8960000    11.8960100    11.8960200    11.8960300    11.8960300    11.8960400
    11.8960500    11.8960600    11.8960700    11.8960800    11.8960900    11.8961000    11.8961100    11.8961200    11.8961300    11.8961400    11.8961500    11.8961600   -40.0000000   -39.7499900   -39.4999800   -39.2499600   -38.9999500   -38.7499400   -38.4999200   -38.2499200   -37.9999000   -37.7498900   -37.4998700   -37.2498600   -36.9998500   -36.7498400   -36.4998200   -36.2498100   -35.9998000   -35.7497900   -35.4997700   -35.2497600   -34.9997500   -34.7497400   -34.4997200   -34.2497100   -33.9997000   -33.7496900   -33.4996800   -33.2496600   -32.9996500   -32.7496400   -32.4996200   -32.2496100   -31.9996000   -31.7495800   -31.4995700   -31.2495600   -30.9995500   -30.7495400   -30.4995200   -30.2495100   -29.9995000   -29.7494900   -29.4994700   -29.2494600   -28.9994500   -28.7494400   -28.4994200   -28.2494100   -27.9994000   -27.7493800   -27.4993700   -27.2493600   -26.9993500   -26.7493300   -26.4993200   -26.2493100   -25.9993000   -25.7492800   -25.4992700   -25.2492600   -24.9992400   -24.7492400   -24.4992200   -24.2492100   -23.9992000   -23.7491800   -23.4991700   -23.2491600   -22.9991500   -22.7491300   -22.4991200   -22.2491100   -21.9991000   -21.7490800   -21.4990700   -21.2490600   -20.9990400   -20.7490300   -20.4990200   -20.2490100   -19.9989900   -19.7489800   -19.4989700   -19.2489600   -18.9989500   -18.7489300   -18.4989200   -18.2489100
   -17.9988900   -17.7488800   -17.4988700   -17.2488600   -16.9988400   -16.7488300   -16.4988200   -16.2488100   -15.9987900   -15.7487800   -15.4987700   -15.2487600   -14.9987400   -14.7487300   -14.4987200   -14.2487000   -13.9986900   -13.7486800   -13.4986700   -13.2486600   -12.9986400   -12.7486300   -12.4986200   -12.2486100   -11.9985900   -11.7485800   -11.4985700   -11.2485600   -10.9985400   -10.7485300   -10.4985200   -10.2485100    -9.9984930    -9.7484810    -9.4984670    -9.2484560    -8.9984440    -8.7484310    -8.4984180    -8.2484050    -7.9983920    -7.7483800    -7.4983680    -7.2483540    -6.9983430    -6.7483300    -6.4983160    -6.2483050    -5.9982920    -5.7482790    -5.4982670    -5.2482540    -4.9982410    -4.7482300    -4.4982160    -4.2482040    -3.9981920    -3.7481790    -3.4981670    -3.2481540    -2.9981410    -2.7481280    -2.4981160    -2.2481040    -1.9980910    -1.7480790    -1.4980660    -1.2480540    -0.9980410    -0.7480283    -0.4980156    -0.2480034     0.0020093     0.2520219     0.5020341     0.7520468     1.0020590     1.2520720     1.5020840     1.7520980     2.0021090     2.2521220     2.5021350     2.7521470     3.0021600     3.2521730     3.5021850     3.7521980     4.0022100     4.2522230     4.5022350     4.7522480     5.0022600     5.2522730     5.5022850     5.7522980     6.0023110     6.2523230     6.5023360     6.7523480
     7.0023610     7.2523730     7.5023860     7.7523980     8.0024110     8.2524230     8.5024370     8.7524490     9.0024610     9.2524740     9.5024860     9.7524990    10.0025100    10.2443100    10.4819600    10.7114100    10.9287100    11.1301400    11.3122600    11.4719500    11.6064600    11.7134900    11.7912100    11.8382800    11.8539000    11.8539100    11.8539200    11.8539400    11.8539500    11.8539600    11.8539700    11.8539800    11.8540000    11.8540100    11.8540200    11.8540400    11.8540500    11.8540600    11.8540700    11.8540800    11.8541000    11.8541100    11.8541200    11.8541400    11.8541500    11.8541600    11.8541700    11.8541900    11.8542000    11.8542100    11.8542200    11.8542400    11.8542500    11.8542600    11.8542700    11.8542900    11.8543000    11.8543100    11.8543200    11.8543400    11.8543500    11.8543600    11.8543700    11.8543900    11.8544000   -40.0000000   -39.7499800   -39.4999700   -39.2499500   -38.9999400   -38.7499200   -38.4999000   -38.2498900   -37.9998700   -37.7498600   -37.4998400   -37.2498300   -36.9998100   -36.7498000   -36.4997800   -36.2497600   -35.9997500   -35.7497400   -35.4997200   -35.2497000   -34.9996900   -34.7496700   -34.4996600   -34.2496400   -33.9996200   -33.7496100   -33.4996000   -33.2495800   -32.9995600   -32.7495500   -32.4995300   -32.2495200   -31.9995000   -31.7494800   -31.4994700
   -31.2494500   -30.9994400   -30.7494200   -30.4994100   -30.2493900   -29.9993800   -29.7493600   -29.4993400   -29.2493300   -28.9993100   -28.7493000   -28.4992800   -28.2492700   -27.9992500   -27.7492300   -27.4992200   -27.2492000   -26.9991900   -26.7491700   -26.4991600   -26.2491400   -25.9991200   -25.7491100   -25.4990900   -25.2490800   -24.9990600   -24.7490500   -24.4990300   -24.2490200   -23.9990000   -23.7489800   -23.4989700   -23.2489500   -22.9989400   -22.7489200   -22.4989100   -22.2488900   -21.9988700   -21.7488600   -21.4988400   -21.2488300   -20.9988100   -20.7488000   -20.4987800   -20.2487600   -19.9987500   -19.7487300   -19.4987200   -19.2487000   -18.9986900   -18.7486700   -18.4986600   -18.2486400   -17.9986200   -17.7486100   -17.4985900   -17.2485800   -16.9985600   -16.7485500   -16.4985300   -16.2485200   -15.9985000   -15.7484800   -15.4984700   -15.2484500   -14.9984400   -14.7484200   -14.4984000   -14.2483900   -13.9983700   -13.7483600   -13.4983400   -13.2483300   -12.9983100   -12.7483000   -12.4982800   -12.2482600   -11.9982500   -11.7482300   -11.4982200   -11.2482000   -10.9981900   -10.7481700   -10.4981600   -10.2481400    -9.9981240    -9.7481090    -9.4980940    -9.2480780    -8.9980620    -8.7480460    -8.4980310    -8.2480150    -7.9979980    -7.7479840    -7.4979680    -7.2479520    -6.9979370    -6.7479210    -6.4979050
    -6.2478900    -5.9978740    -5.7478580    -5.4978430    -5.2478270    -4.9978110    -4.7477960    -4.4977800    -4.2477640    -3.9977490    -3.7477340    -3.4977170    -3.2477030    -2.9976860    -2.7476710    -2.4976550    -2.2476390    -1.9976240    -1.7476080    -1.4975930    -1.2475770    -0.9975619    -0.7475457    -0.4975300    -0.2475151     0.0025008     0.2525170     0.5025319     0.7525481     1.0025640     1.2525790     1.5025950     1.7526110     2.0026260     2.2526420     2.5026580     2.7526730     3.0026890     3.2527050     3.5027190     3.7527350     4.0027510     4.2527670     4.5027820     4.7527980     5.0028140     5.2528290     5.5028450     5.7528610     6.0028760     6.2528920     6.5029070     6.7529230     7.0029390     7.2529540     7.5029700     7.7529850     8.0030010     8.2530160     8.5030330     8.7530480     9.0030640     9.2530790     9.5030950     9.7531110    10.0031300    10.2388700    10.4705700    10.6942600    10.9061100    11.1024900    11.2800300    11.4356900    11.5668000    11.6711200    11.7468400    11.7926800    11.8078400    11.8078600    11.8078700    11.8078900    11.8079000    11.8079200    11.8079400    11.8079500    11.8079700    11.8079800    11.8080000    11.8080100    11.8080300    11.8080400    11.8080600    11.8080800    11.8080900    11.8081100    11.8081200    11.8081400    11.8081500    11.8081700    11.8081900
    11.8082000    11.8082200    11.8082300    11.8082500    11.8082600    11.8082800    11.8083000    11.8083100    11.8083300    11.8083400    11.8083600    11.8083700    11.8083900    11.8084000    11.8084200    11.8084400    11.8084500    11.8084700   -40.0000000   -39.7499800   -39.4999700   -39.2499400   -38.9999300   -38.7499000   -38.4998900   -38.2498700   -37.9998500   -37.7498300   -37.4998100   -37.2498000   -36.9997800   -36.7497600   -36.4997400   -36.2497200   -35.9997000   -35.7496800   -35.4996700   -35.2496500   -34.9996300   -34.7496100   -34.4995900   -34.2495800   -33.9995500   -33.7495400   -33.4995200   -33.2495000   -32.9994800   -32.7494600   -32.4994500   -32.2494300   -31.9994100   -31.7493900   -31.4993700   -31.2493500   -30.9993300   -30.7493200   -30.4993000   -30.2492800   -29.9992600   -29.7492400   -29.4992200   -29.2492000   -28.9991900   -28.7491700   -28.4991500   -28.2491300   -27.9991100   -27.7490900   -27.4990700   -27.2490600   -26.9990400   -26.7490200   -26.4990000   -26.2489800   -25.9989600   -25.7489500   -25.4989200   -25.2489100   -24.9988900   -24.7488700   -24.4988500   -24.2488300   -23.9988200   -23.7488000   -23.4987800   -23.2487600   -22.9987400   -22.7487200   -22.4987000   -22.2486800   -21.9986600   -21.7486500   -21.4986300   -21.2486100   -20.9985900   -20.7485800   -20.4985600   -20.2485400   -19.9985200   -19.7485000
   -19.4984800   -19.2484600   -18.9984500   -18.7484300   -18.4984100   -18.2483900   -17.9983700   -17.7483500   -17.4983300   -17.2483200   -16.9982900   -16.7482800   -16.4982600   -16.2482400   -15.9982200   -15.7482000   -15.4981900   -15.2481700   -14.9981500   -14.7481300   -14.4981100   -14.2480900   -13.9980700   -13.7480600   -13.4980400   -13.2480200   -12.9980000   -12.7479800   -12.4979600   -12.2479400   -11.9979300   -11.7479100   -11.4978900   -11.2478700   -10.9978500   -10.7478300   -10.4978200   -10.2478000    -9.9977780    -9.7477590    -9.4977410    -9.2477230    -8.9977050    -8.7476850    -8.4976660    -8.2476480    -7.9976290    -7.7476110    -7.4975930    -7.2475730    -6.9975560    -6.7475370    -6.4975190    -6.2475000    -5.9974810    -5.7474630    -5.4974440    -5.2474260    -4.9974060    -4.7473890    -4.4973710    -4.2473510    -3.9973340    -3.7473150    -3.4972960    -3.2472780    -2.9972590    -2.7472400    -2.4972230    -2.2472040    -1.9971840    -1.7471670    -1.4971480    -1.2471290    -0.9971110    -0.7470925    -0.4970735    -0.2470556     0.0029632     0.2529817     0.5030001     0.7530186     1.0030380     1.2530560     1.5030740     1.7530930     2.0031110     2.2531300     2.5031480     2.7531670     3.0031850     3.2532040     3.5032220     3.7532410     4.0032600     4.2532780     4.5032960     4.7533150     5.0033340     5.2533520
     5.5033710     5.7533890     6.0034070     6.2534260     6.5034450     6.7534630     7.0034820     7.2535000     7.5035190     7.7535370     8.0035550     8.2535740     8.5035920     8.7536120     9.0036300     9.2536490     9.5036670     9.7536850    10.0037000    10.2327900    10.4579500    10.6753300    10.8811900    11.0720200    11.2445300    11.3957800    11.5231600    11.6244900    11.6980400    11.7425300    11.7572000    11.7572200    11.7572400    11.7572500    11.7572700    11.7572900    11.7573100    11.7573300    11.7573500    11.7573700    11.7573800    11.7574000    11.7574200    11.7574400    11.7574600    11.7574800    11.7575000    11.7575100    11.7575300    11.7575500    11.7575700    11.7575900    11.7576100    11.7576300    11.7576400    11.7576600    11.7576800    11.7577000    11.7577200    11.7577400    11.7577500    11.7577700    11.7577900    11.7578100    11.7578300    11.7578500    11.7578700    11.7578800    11.7579000    11.7579200    11.7579400   -40.0000000   -39.7499800   -39.4999600   -39.2499400   -38.9999200   -38.7498900   -38.4998700   -38.2498500   -37.9998300   -37.7498100   -37.4997900   -37.2497700   -36.9997500   -36.7497300   -36.4997100   -36.2496800   -35.9996600   -35.7496400   -35.4996200   -35.2496000   -34.9995800   -34.7495600   -34.4995300   -34.2495200   -33.9994900   -33.7494700   -33.4994500   -33.2494300   -32.9994100
   -32.7493900   -32.4993700   -32.2493500   -31.9993300   -31.7493000   -31.4992800   -31.2492600   -30.9992400   -30.7492200   -30.4992000   -30.2491800   -29.9991600   -29.7491400   -29.4991100   -29.2490900   -28.9990700   -28.7490500   -28.4990300   -28.2490100   -27.9989900   -27.7489700   -27.4989500   -27.2489200   -26.9989000   -26.7488800   -26.4988600   -26.2488400   -25.9988200   -25.7488000   -25.4987800   -25.2487600   -24.9987400   -24.7487100   -24.4986900   -24.2486700   -23.9986500   -23.7486300   -23.4986100   -23.2485900   -22.9985600   -22.7485400   -22.4985200   -22.2485000   -21.9984800   -21.7484600   -21.4984400   -21.2484200   -20.9984000   -20.7483700   -20.4983500   -20.2483300   -19.9983100   -19.7482900   -19.4982700   -19.2482500   -18.9982300   -18.7482100   -18.4981800   -18.2481700   -17.9981400   -17.7481200   -17.4981000   -17.2480800   -16.9980600   -16.7480400   -16.4980200   -16.2479900   -15.9979700   -15.7479500   -15.4979300   -15.2479100   -14.9978900   -14.7478700   -14.4978500   -14.2478300   -13.9978000   -13.7477800   -13.4977600   -13.2477400   -12.9977200   -12.7477000   -12.4976800   -12.2476600   -11.9976400   -11.7476100   -11.4975900   -11.2475700   -10.9975500   -10.7475300   -10.4975100   -10.2474900    -9.9974670    -9.7474460    -9.4974250    -9.2474040    -8.9973840    -8.7473620    -8.4973410    -8.2473190    -7.9972980
    -7.7472780    -7.4972570    -7.2472360    -6.9972150    -6.7471930    -6.4971720    -6.2471510    -5.9971300    -5.7471080    -5.4970880    -5.2470670    -4.9970460    -4.7470250    -4.4970030    -4.2469820    -3.9969610    -3.7469400    -3.4969190    -3.2468980    -2.9968770    -2.7468550    -2.4968350    -2.2468130    -1.9967920    -1.7467720    -1.4967500    -1.2467290    -0.9967082    -0.7466867    -0.4966657    -0.2466451     0.0033765     0.2533975     0.5034186     0.7534396     1.0034610     1.2534820     1.5035030     1.7535240     2.0035450     2.2535670     2.5035870     2.7536080     3.0036300     3.2536510     3.5036720     3.7536930     4.0037140     4.2537350     4.5037570     4.7537780     5.0037980     5.2538190     5.5038400     5.7538610     6.0038830     6.2539040     6.5039250     6.7539460     7.0039670     7.2539880     7.5040090     7.7540310     8.0040510     8.2540730     8.5040940     8.7541150     9.0041360     9.2541570     9.5041780     9.7541990    10.0042200    10.2260000    10.4439800    10.6544200    10.8537100    11.0384400    11.2054400    11.3518400    11.4751300    11.5732000    11.6443600    11.6873800    11.7015200    11.7015400    11.7015600    11.7015800    11.7016000    11.7016200    11.7016400    11.7016700    11.7016900    11.7017100    11.7017300    11.7017500    11.7017700    11.7017900    11.7018100    11.7018300    11.7018600
    11.7018800    11.7019000    11.7019200    11.7019400    11.7019600    11.7019800    11.7020000    11.7020200    11.7020500    11.7020700    11.7020900    11.7021100    11.7021300    11.7021500    11.7021700    11.7021900    11.7022100    11.7022400    11.7022600    11.7022800    11.7023000    11.7023200    11.7023400    11.7023600   -40.0000000   -39.7499800   -39.4999600   -39.2499300   -38.9999000   -38.7498800   -38.4998600   -38.2498400   -37.9998100   -37.7497900   -37.4997700   -37.2497400   -36.9997200   -36.7497000   -36.4996800   -36.2496500   -35.9996300   -35.7496000   -35.4995800   -35.2495600   -34.9995400   -34.7495100   -34.4994900   -34.2494700   -33.9994400   -33.7494200   -33.4994000   -33.2493700   -32.9993500   -32.7493200   -32.4993100   -32.2492800   -31.9992600   -31.7492400   -31.4992100   -31.2491900   -30.9991600   -30.7491400   -30.4991200   -30.2491000   -29.9990700   -29.7490500   -29.4990300   -29.2490000   -28.9989800   -28.7489500   -28.4989300   -28.2489100   -27.9988900   -27.7488600   -27.4988400   -27.2488200   -26.9987900   -26.7487700   -26.4987400   -26.2487200   -25.9987000   -25.7486800   -25.4986500   -25.2486300   -24.9986100   -24.7485800   -24.4985600   -24.2485400   -23.9985100   -23.7484900   -23.4984700   -23.2484400   -22.9984200   -22.7484000   -22.4983700   -22.2483500   -21.9983300   -21.7483000   -21.4982800   -21.2482600