 VARIABLES = "X", "Y", "P", "U", "V", "GradPX", "GradPY", "GradPX_res", "GradPY_res", "DivV", "DivV_res", "LapP", "LapP_res", "DivVP", "DivVP_res", "curlV", "curlV_res", "T"
 ZONE I=          81 , J=          81 , DATAPACKING=BLOCK, VARLOCATION=([3-30]=CELLCENTERED)
     0.0000000     0.0125000     0.0250000     0.0375000     0.0500000     0.0624999     0.0749999     0.0874999     0.0999999     0.1124999     0.1249999     0.1374999     0.1500000     0.1625000     0.1750001     0.1875001     0.2000002     0.2125002     0.2250003     0.2375003     0.2500004     0.2625004     0.2750005     0.2875005     0.3000005     0.3125006     0.3250006     0.3375007     0.3500007     0.3625008     0.3750008     0.3875009     0.4000009     0.4125010     0.4250010     0.4375011     0.4500011     0.4625012     0.4750012     0.4875013     0.5000013     0.5125014     0.5250014     0.5375015     0.5500015     0.5625015     0.5750016     0.5875016     0.6000017     0.6125017     0.6250018     0.6375018     0.6500019     0.6625019     0.6750020     0.6875020     0.7000021     0.7125021     0.7250022     0.7375022     0.7500023     0.7625023     0.7750024     0.7875024     0.8000025     0.8125025     0.8250026     0.8375026     0.8500026     0.8625027     0.8750027     0.8875028     0.9000028     0.9125029     0.9250029     0.9375030     0.9500030     0.9625031     0.9750031     0.9875032     1.0000000     0.0000000     0.0125000     0.0250000     0.0375000     0.0500000     0.0624999     0.0749999     0.0874999     0.0999999     0.1124999     0.1249999     0.1374999     0.1500000     0.1625000     0.1750001     0.1875001     0.2000002     0.2125002     0.2250003
     0.2375003     0.2500004     0.2625004     0.2750005     0.2875005     0.3000005     0.3125006     0.3250006     0.3375007     0.3500007     0.3625008     0.3750008     0.3875009     0.4000009     0.4125010     0.4250010     0.4375011     0.4500011     0.4625012     0.4750012     0.4875013     0.5000013     0.5125014     0.5250014     0.5375015     0.5500015     0.5625015     0.5750016     0.5875016     0.6000017     0.6125017     0.6250018     0.6375018     0.6500019     0.6625019     0.6750020     0.6875020     0.7000021     0.7125021     0.7250022     0.7375022     0.7500023     0.7625023     0.7750024     0.7875024     0.8000025     0.8125025     0.8250026     0.8375026     0.8500026     0.8625027     0.8750027     0.8875028     0.9000028     0.9125029     0.9250029     0.9375030     0.9500030     0.9625031     0.9750031     0.9875032     1.0000000     0.0000000     0.0125000     0.0250000     0.0375000     0.0500000     0.0624999     0.0749999     0.0874999     0.0999999     0.1124999     0.1249999     0.1374999     0.1500000     0.1625000     0.1750001     0.1875001     0.2000002     0.2125002     0.2250003     0.2375003     0.2500004     0.2625004     0.2750005     0.2875005     0.3000005     0.3125006     0.3250006     0.3375007     0.3500007     0.3625008     0.3750008     0.3875009     0.4000009     0.4125010     0.4250010     0.4375011     0.4500011     0.4625012
     0.4750012     0.4875013     0.5000013     0.5125014     0.5250014     0.5375015     0.5500015     0.5625015     0.5750016     0.5875016     0.6000017     0.6125017     0.6250018     0.6375018     0.6500019     0.6625019     0.6750020     0.6875020     0.7000021     0.7125021     0.7250022     0.7375022     0.7500023     0.7625023     0.7750024     0.7875024     0.8000025     0.8125025     0.8250026     0.8375026     0.8500026     0.8625027     0.8750027     0.8875028     0.9000028     0.9125029     0.9250029     0.9375030     0.9500030     0.9625031     0.9750031     0.9875032     1.0000000     0.0000000     0.0125000     0.0250000     0.0375000     0.0500000     0.0624999     0.0749999     0.0874999     0.0999999     0.1124999     0.1249999     0.1374999     0.1500000     0.1625000     0.1750001     0.1875001     0.2000002     0.2125002     0.2250003     0.2375003     0.2500004     0.2625004     0.2750005     0.2875005     0.3000005     0.3125006     0.3250006     0.3375007     0.3500007     0.3625008     0.3750008     0.3875009     0.4000009     0.4125010     0.4250010     0.4375011     0.4500011     0.4625012     0.4750012     0.4875013     0.5000013     0.5125014     0.5250014     0.5375015     0.5500015     0.5625015     0.5750016     0.5875016     0.6000017     0.6125017     0.6250018     0.6375018     0.6500019     0.6625019     0.6750020     0.6875020     0.7000021
     0.7125021     0.7250022     0.7375022     0.7500023     0.7625023     0.7750024     0.7875024     0.8000025     0.8125025     0.8250026     0.8375026     0.8500026     0.8625027     0.8750027     0.8875028     0.9000028     0.9125029     0.9250029     0.9375030     0.9500030     0.9625031     0.9750031     0.9875032     1.0000000     0.0000000     0.0125000     0.0250000     0.0375000     0.0500000     0.0624999     0.0749999     0.0874999     0.0999999     0.1124999     0.1249999     0.1374999     0.1500000     0.1625000     0.1750001     0.1875001     0.2000002     0.2125002     0.2250003     0.2375003     0.2500004     0.2625004     0.2750005     0.2875005     0.3000005     0.3125006     0.3250006     0.3375007     0.3500007     0.3625008     0.3750008     0.3875009     0.4000009     0.4125010     0.4250010     0.4375011     0.4500011     0.4625012     0.4750012     0.4875013     0.5000013     0.5125014     0.5250014     0.5375015     0.5500015     0.5625015     0.5750016     0.5875016     0.6000017     0.6125017     0.6250018     0.6375018     0.6500019     0.6625019     0.6750020     0.6875020     0.7000021     0.7125021     0.7250022     0.7375022     0.7500023     0.7625023     0.7750024     0.7875024     0.8000025     0.8125025     0.8250026     0.8375026     0.8500026     0.8625027     0.8750027     0.8875028     0.9000028     0.9125029     0.9250029     0.9375030
     0.9500030     0.9625031     0.9750031     0.9875032     1.0000000     0.0000000     0.0125000     0.0250000     0.0375000     0.0500000     0.0624999     0.0749999     0.0874999     0.0999999     0.1124999     0.1249999     0.1374999     0.1500000     0.1625000     0.1750001     0.1875001     0.2000002     0.2125002     0.2250003     0.2375003     0.2500004     0.2625004     0.2750005     0.2875005     0.3000005     0.3125006     0.3250006     0.3375007     0.3500007     0.3625008     0.3750008     0.3875009     0.4000009     0.4125010     0.4250010     0.4375011     0.4500011     0.4625012     0.4750012     0.4875013     0.5000013     0.5125014     0.5250014     0.5375015     0.5500015     0.5625015     0.5750016     0.5875016     0.6000017     0.6125017     0.6250018     0.6375018     0.6500019     0.6625019     0.6750020     0.6875020     0.7000021     0.7125021     0.7250022     0.7375022     0.7500023     0.7625023     0.7750024     0.7875024     0.8000025     0.8125025     0.8250026     0.8375026     0.8500026     0.8625027     0.8750027     0.8875028     0.9000028     0.9125029     0.9250029     0.9375030     0.9500030     0.9625031     0.9750031     0.9875032     1.0000000     0.0000000     0.0125000     0.0250000     0.0375000     0.0500000     0.0624999     0.0749999     0.0874999     0.0999999     0.1124999     0.1249999     0.1374999     0.1500000     0.1625000
     0.1750001     0.1875001     0.2000002     0.2125002     0.2250003     0.2375003     0.2500004     0.2625004     0.2750005     0.2875005     0.3000005     0.3125006     0.3250006     0.3375007     0.3500007     0.3625008     0.3750008     0.3875009     0.4000009     0.4125010     0.4250010     0.4375011     0.4500011     0.4625012     0.4750012     0.4875013     0.5000013     0.5125014     0.5250014     0.5375015     0.5500015     0.5625015     0.5750016     0.5875016     0.6000017     0.6125017     0.6250018     0.6375018     0.6500019     0.6625019     0.6750020     0.6875020     0.7000021     0.7125021     0.7250022     0.7375022     0.7500023     0.7625023     0.7750024     0.7875024     0.8000025     0.8125025     0.8250026     0.8375026     0.8500026     0.8625027     0.8750027     0.8875028     0.9000028     0.9125029     0.9250029     0.9375030     0.9500030     0.9625031     0.9750031     0.9875032     1.0000000     0.0000000     0.0125000     0.0250000     0.0375000     0.0500000     0.0624999     0.0749999     0.0874999     0.0999999     0.1124999     0.1249999     0.1374999     0.1500000     0.1625000     0.1750001     0.1875001     0.2000002     0.2125002     0.2250003     0.2375003     0.2500004     0.2625004     0.2750005     0.2875005     0.3000005     0.3125006     0.3250006     0.3375007     0.3500007     0.3625008     0.3750008     0.3875009     0.4000009
     0.4125010     0.4250010     0.4375011     0.4500011     0.4625012     0.4750012     0.4875013     0.5000013     0.5125014     0.5250014     0.5375015     0.5500015     0.5625015     0.5750016     0.5875016     0.6000017     0.6125017     0.6250018     0.6375018     0.6500019     0.6625019     0.6750020     0.6875020     0.7000021     0.7125021     0.7250022     0.7375022     0.7500023     0.7625023     0.7750024     0.7875024     0.8000025     0.8125025     0.8250026     0.8375026     0.8500026     0.8625027     0.8750027     0.8875028     0.9000028     0.9125029     0.9250029     0.9375030     0.9500030     0.9625031     0.9750031     0.9875032     1.0000000     0.0000000     0.0125000     0.0250000     0.0375000     0.0500000     0.0624999     0.0749999     0.0874999     0.0999999     0.1124999     0.1249999     0.1374999     0.1500000     0.1625000     0.1750001     0.1875001     0.2000002     0.2125002     0.2250003     0.2375003     0.2500004     0.2625004     0.2750005     0.2875005     0.3000005     0.3125006     0.3250006     0.3375007     0.3500007     0.3625008     0.3750008     0.3875009     0.4000009     0.4125010     0.4250010     0.4375011     0.4500011     0.4625012     0.4750012     0.4875013     0.5000013     0.5125014     0.5250014     0.5375015     0.5500015     0.5625015     0.5750016     0.5875016     0.6000017     0.6125017     0.6250018     0.6375018
     0.6500019     0.6625019     0.6750020     0.6875020     0.7000021     0.7125021     0.7250022     0.7375022     0.7500023     0.7625023     0.7750024     0.7875024     0.8000025     0.8125025     0.8250026     0.8375026     0.8500026     0.8625027     0.8750027     0.8875028     0.9000028     0.9125029     0.9250029     0.9375030     0.9500030     0.9625031     0.9750031     0.9875032     1.0000000     0.0000000     0.0125000     0.0250000     0.0375000     0.0500000     0.0624999     0.0749999     0.0874999     0.0999999     0.1124999     0.1249999     0.1374999     0.1500000     0.1625000     0.1750001     0.1875001     0.2000002     0.2125002     0.2250003     0.2375003     0.2500004     0.2625004     0.2750005     0.2875005     0.3000005     0.3125006     0.3250006     0.3375007     0.3500007     0.3625008     0.3750008     0.3875009     0.4000009     0.4125010     0.4250010     0.4375011     0.4500011     0.4625012     0.4750012     0.4875013     0.5000013     0.5125014     0.5250014     0.5375015     0.5500015     0.5625015     0.5750016     0.5875016     0.6000017     0.6125017     0.6250018     0.6375018     0.6500019     0.6625019     0.6750020     0.6875020     0.7000021     0.7125021     0.7250022     0.7375022     0.7500023     0.7625023     0.7750024     0.7875024     0.8000025     0.8125025     0.8250026     0.8375026     0.8500026     0.8625027     0.8750027
     0.8875028     0.9000028     0.9125029     0.9250029     0.9375030     0.9500030     0.9625031     0.9750031     0.9875032     1.0000000     0.0000000     0.0125000     0.0250000     0.0375000     0.0500000     0.0624999     0.0749999     0.0874999     0.0999999     0.1124999     0.1249999     0.1374999     0.1500000     0.1625000     0.1750001     0.1875001     0.2000002     0.2125002     0.2250003     0.2375003     0.2500004     0.2625004     0.2750005     0.2875005     0.3000005     0.3125006     0.3250006     0.3375007     0.3500007     0.3625008     0.3750008     0.3875009     0.4000009     0.4125010     0.4250010     0.4375011     0.4500011     0.4625012     0.4750012     0.4875013     0.5000013     0.5125014     0.5250014     0.5375015     0.5500015     0.5625015     0.5750016     0.5875016     0.6000017     0.6125017     0.6250018     0.6375018     0.6500019     0.6625019     0.6750020     0.6875020     0.7000021     0.7125021     0.7250022     0.7375022     0.7500023     0.7625023     0.7750024     0.7875024     0.8000025     0.8125025     0.8250026     0.8375026     0.8500026     0.8625027     0.8750027     0.8875028     0.9000028     0.9125029     0.9250029     0.9375030     0.9500030     0.9625031     0.9750031     0.9875032     1.0000000     0.0000000     0.0125000     0.0250000     0.0375000     0.0500000     0.0624999     0.0749999     0.0874999     0.0999999
     0.1124999     0.1249999     0.1374999     0.1500000     0.1625000     0.1750001     0.1875001     0.2000002     0.2125002     0.2250003     0.2375003     0.2500004     0.2625004     0.2750005     0.2875005     0.3000005     0.3125006     0.3250006     0.3375007     0.3500007     0.3625008     0.3750008     0.3875009     0.4000009     0.4125010     0.4250010     0.4375011     0.4500011     0.4625012     0.4750012     0.4875013     0.5000013     0.5125014     0.5250014     0.5375015     0.5500015     0.5625015     0.5750016     0.5875016     0.6000017     0.6125017     0.6250018     0.6375018     0.6500019     0.6625019     0.6750020     0.6875020     0.7000021     0.7125021     0.7250022     0.7375022     0.7500023     0.7625023     0.7750024     0.7875024     0.8000025     0.8125025     0.8250026     0.8375026     0.8500026     0.8625027     0.8750027     0.8875028     0.9000028     0.9125029     0.9250029     0.9375030     0.9500030     0.9625031     0.9750031     0.9875032     1.0000000     0.0000000     0.0125000     0.0250000     0.0375000     0.0500000     0.0624999     0.0749999     0.0874999     0.0999999     0.1124999     0.1249999     0.1374999     0.1500000     0.1625000     0.1750001     0.1875001     0.2000002     0.2125002     0.2250003     0.2375003     0.2500004     0.2625004     0.2750005     0.2875005     0.3000005     0.3125006     0.3250006     0.3375007
     0.3500007     0.3625008     0.3750008     0.3875009     0.4000009     0.4125010     0.4250010     0.4375011     0.4500011     0.4625012     0.4750012     0.4875013     0.5000013     0.5125014     0.5250014     0.5375015     0.5500015     0.5625015     0.5750016     0.5875016     0.6000017     0.6125017     0.6250018     0.6375018     0.6500019     0.6625019     0.6750020     0.6875020     0.7000021     0.7125021     0.7250022     0.7375022     0.7500023     0.7625023     0.7750024     0.7875024     0.8000025     0.8125025     0.8250026     0.8375026     0.8500026     0.8625027     0.8750027     0.8875028     0.9000028     0.9125029     0.9250029     0.9375030     0.9500030     0.9625031     0.9750031     0.9875032     1.0000000     0.0000000     0.0125000     0.0250000     0.0375000     0.0500000     0.0624999     0.0749999     0.0874999     0.0999999     0.1124999     0.1249999     0.1374999     0.1500000     0.1625000     0.1750001     0.1875001     0.2000002     0.2125002     0.2250003     0.2375003     0.2500004     0.2625004     0.2750005     0.2875005     0.3000005     0.3125006     0.3250006     0.3375007     0.3500007     0.3625008     0.3750008     0.3875009     0.4000009     0.4125010     0.4250010     0.4375011     0.4500011     0.4625012     0.4750012     0.4875013     0.5000013     0.5125014     0.5250014     0.5375015     0.5500015     0.5625015     0.5750016
     0.5875016     0.6000017     0.6125017     0.6250018     0.6375018     0.6500019     0.6625019     0.6750020     0.6875020     0.7000021     0.7125021     0.7250022     0.7375022     0.7500023     0.7625023     0.7750024     0.7875024     0.8000025     0.8125025     0.8250026     0.8375026     0.8500026     0.8625027     0.8750027     0.8875028     0.9000028     0.9125029     0.9250029     0.9375030     0.9500030     0.9625031     0.9750031     0.9875032     1.0000000     0.0000000     0.0125000     0.0250000     0.0375000     0.0500000     0.0624999     0.0749999     0.0874999     0.0999999     0.1124999     0.1249999     0.1374999     0.1500000     0.1625000     0.1750001     0.1875001     0.2000002     0.2125002     0.2250003     0.2375003     0.2500004     0.2625004     0.2750005     0.2875005     0.3000005     0.3125006     0.3250006     0.3375007     0.3500007     0.3625008     0.3750008     0.3875009     0.4000009     0.4125010     0.4250010     0.4375011     0.4500011     0.4625012     0.4750012     0.4875013     0.5000013     0.5125014     0.5250014     0.5375015     0.5500015     0.5625015     0.5750016     0.5875016     0.6000017     0.6125017     0.6250018     0.6375018     0.6500019     0.6625019     0.6750020     0.6875020     0.7000021     0.7125021     0.7250022     0.7375022     0.7500023     0.7625023     0.7750024     0.7875024     0.8000025     0.8125025
     0.8250026     0.8375026     0.8500026     0.8625027     0.8750027     0.8875028     0.9000028     0.9125029     0.9250029     0.9375030     0.9500030     0.9625031     0.9750031     0.9875032     1.0000000     0.0000000     0.0125000     0.0250000     0.0375000     0.0500000     0.0624999     0.0749999     0.0874999     0.0999999     0.1124999     0.1249999     0.1374999     0.1500000     0.1625000     0.1750001     0.1875001     0.2000002     0.2125002     0.2250003     0.2375003     0.2500004     0.2625004     0.2750005     0.2875005     0.3000005     0.3125006     0.3250006     0.3375007     0.3500007     0.3625008     0.3750008     0.3875009     0.4000009     0.4125010     0.4250010     0.4375011     0.4500011     0.4625012     0.4750012     0.4875013     0.5000013     0.5125014     0.5250014     0.5375015     0.5500015     0.5625015     0.5750016     0.5875016     0.6000017     0.6125017     0.6250018     0.6375018     0.6500019     0.6625019     0.6750020     0.6875020     0.7000021     0.7125021     0.7250022     0.7375022     0.7500023     0.7625023     0.7750024     0.7875024     0.8000025     0.8125025     0.8250026     0.8375026     0.8500026     0.8625027     0.8750027     0.8875028     0.9000028     0.9125029     0.9250029     0.9375030     0.9500030     0.9625031     0.9750031     0.9875032     1.0000000     0.0000000     0.0125000     0.0250000     0.0375000
     0.0500000     0.0624999     0.0749999     0.0874999     0.0999999     0.1124999     0.1249999     0.1374999     0.1500000     0.1625000     0.1750001     0.1875001     0.2000002     0.2125002     0.2250003     0.2375003     0.2500004     0.2625004     0.2750005     0.2875005     0.3000005     0.3125006     0.3250006     0.3375007     0.3500007     0.3625008     0.3750008     0.3875009     0.4000009     0.4125010     0.4250010     0.4375011     0.4500011     0.4625012     0.4750012     0.4875013     0.5000013     0.5125014     0.5250014     0.5375015     0.5500015     0.5625015     0.5750016     0.5875016     0.6000017     0.6125017     0.6250018     0.6375018     0.6500019     0.6625019     0.6750020     0.6875020     0.7000021     0.7125021     0.7250022     0.7375022     0.7500023     0.7625023     0.7750024     0.7875024     0.8000025     0.8125025     0.8250026     0.8375026     0.8500026     0.8625027     0.8750027     0.8875028     0.9000028     0.9125029     0.9250029     0.9375030     0.9500030     0.9625031     0.9750031     0.9875032     1.0000000     0.0000000     0.0125000     0.0250000     0.0375000     0.0500000     0.0624999     0.0749999     0.0874999     0.0999999     0.1124999     0.1249999     0.1374999     0.1500000     0.1625000     0.1750001     0.1875001     0.2000002     0.2125002     0.2250003     0.2375003     0.2500004     0.2625004     0.2750005
     0.2875005     0.3000005     0.3125006     0.3250006     0.3375007     0.3500007     0.3625008     0.3750008     0.3875009     0.4000009     0.4125010     0.4250010     0.4375011     0.4500011     0.4625012     0.4750012     0.4875013     0.5000013     0.5125014     0.5250014     0.5375015     0.5500015     0.5625015     0.5750016     0.5875016     0.6000017     0.6125017     0.6250018     0.6375018     0.6500019     0.6625019     0.6750020     0.6875020     0.7000021     0.7125021     0.7250022     0.7375022     0.7500023     0.7625023     0.7750024     0.7875024     0.8000025     0.8125025     0.8250026     0.8375026     0.8500026     0.8625027     0.8750027     0.8875028     0.9000028     0.9125029     0.9250029     0.9375030     0.9500030     0.9625031     0.9750031     0.9875032     1.0000000     0.0000000     0.0125000     0.0250000     0.0375000     0.0500000     0.0624999     0.0749999     0.0874999     0.0999999     0.1124999     0.1249999     0.1374999     0.1500000     0.1625000     0.1750001     0.1875001     0.2000002     0.2125002     0.2250003     0.2375003     0.2500004     0.2625004     0.2750005     0.2875005     0.3000005     0.3125006     0.3250006     0.3375007     0.3500007     0.3625008     0.3750008     0.3875009     0.4000009     0.4125010     0.4250010     0.4375011     0.4500011     0.4625012     0.4750012     0.4875013     0.5000013     0.5125014
     0.5250014     0.5375015     0.5500015     0.5625015     0.5750016     0.5875016     0.6000017     0.6125017     0.6250018     0.6375018     0.6500019     0.6625019     0.6750020     0.6875020     0.7000021     0.7125021     0.7250022     0.7375022     0.7500023     0.7625023     0.7750024     0.7875024     0.8000025     0.8125025     0.8250026     0.8375026     0.8500026     0.8625027     0.8750027     0.8875028     0.9000028     0.9125029     0.9250029     0.9375030     0.9500030     0.9625031     0.9750031     0.9875032     1.0000000     0.0000000     0.0125000     0.0250000     0.0375000     0.0500000     0.0624999     0.0749999     0.0874999     0.0999999     0.1124999     0.1249999     0.1374999     0.1500000     0.1625000     0.1750001     0.1875001     0.2000002     0.2125002     0.2250003     0.2375003     0.2500004     0.2625004     0.2750005     0.2875005     0.3000005     0.3125006     0.3250006     0.3375007     0.3500007     0.3625008     0.3750008     0.3875009     0.4000009     0.4125010     0.4250010     0.4375011     0.4500011     0.4625012     0.4750012     0.4875013     0.5000013     0.5125014     0.5250014     0.5375015     0.5500015     0.5625015     0.5750016     0.5875016     0.6000017     0.6125017     0.6250018     0.6375018     0.6500019     0.6625019     0.6750020     0.6875020     0.7000021     0.7125021     0.7250022     0.7375022     0.7500023
     0.7625023     0.7750024     0.7875024     0.8000025     0.8125025     0.8250026     0.8375026     0.8500026     0.8625027     0.8750027     0.8875028     0.9000028     0.9125029     0.9250029     0.9375030     0.9500030     0.9625031     0.9750031     0.9875032     1.0000000     0.0000000     0.0125000     0.0250000     0.0375000     0.0500000     0.0624999     0.0749999     0.0874999     0.0999999     0.1124999     0.1249999     0.1374999     0.1500000     0.1625000     0.1750001     0.1875001     0.2000002     0.2125002     0.2250003     0.2375003     0.2500004     0.2625004     0.2750005     0.2875005     0.3000005     0.3125006     0.3250006     0.3375007     0.3500007     0.3625008     0.3750008     0.3875009     0.4000009     0.4125010     0.4250010     0.4375011     0.4500011     0.4625012     0.4750012     0.4875013     0.5000013     0.5125014     0.5250014     0.5375015     0.5500015     0.5625015     0.5750016     0.5875016     0.6000017     0.6125017     0.6250018     0.6375018     0.6500019     0.6625019     0.6750020     0.6875020     0.7000021     0.7125021     0.7250022     0.7375022     0.7500023     0.7625023     0.7750024     0.7875024     0.8000025     0.8125025     0.8250026     0.8375026     0.8500026     0.8625027     0.8750027     0.8875028     0.9000028     0.9125029     0.9250029     0.9375030     0.9500030     0.9625031     0.9750031     0.9875032
     1.0000000     0.0000000     0.0125000     0.0250000     0.0375000     0.0500000     0.0624999     0.0749999     0.0874999     0.0999999     0.1124999     0.1249999     0.1374999     0.1500000     0.1625000     0.1750001     0.1875001     0.2000002     0.2125002     0.2250003     0.2375003     0.2500004     0.2625004     0.2750005     0.2875005     0.3000005     0.3125006     0.3250006     0.3375007     0.3500007     0.3625008     0.3750008     0.3875009     0.4000009     0.4125010     0.4250010     0.4375011     0.4500011     0.4625012     0.4750012     0.4875013     0.5000013     0.5125014     0.5250014     0.5375015     0.5500015     0.5625015     0.5750016     0.5875016     0.6000017     0.6125017     0.6250018     0.6375018     0.6500019     0.6625019     0.6750020     0.6875020     0.7000021     0.7125021     0.7250022     0.7375022     0.7500023     0.7625023     0.7750024     0.7875024     0.8000025     0.8125025     0.8250026     0.8375026     0.8500026     0.8625027     0.8750027     0.8875028     0.9000028     0.9125029     0.9250029     0.9375030     0.9500030     0.9625031     0.9750031     0.9875032     1.0000000     0.0000000     0.0125000     0.0250000     0.0375000     0.0500000     0.0624999     0.0749999     0.0874999     0.0999999     0.1124999     0.1249999     0.1374999     0.1500000     0.1625000     0.1750001     0.1875001     0.2000002     0.2125002
     0.2250003     0.2375003     0.2500004     0.2625004     0.2750005     0.2875005     0.3000005     0.3125006     0.3250006     0.3375007     0.3500007     0.3625008     0.3750008     0.3875009     0.4000009     0.4125010     0.4250010     0.4375011     0.4500011     0.4625012     0.4750012     0.4875013     0.5000013     0.5125014     0.5250014     0.5375015     0.5500015     0.5625015     0.5750016     0.5875016     0.6000017     0.6125017     0.6250018     0.6375018     0.6500019     0.6625019     0.6750020     0.6875020     0.7000021     0.7125021     0.7250022     0.7375022     0.7500023     0.7625023     0.7750024     0.7875024     0.8000025     0.8125025     0.8250026     0.8375026     0.8500026     0.8625027     0.8750027     0.8875028     0.9000028     0.9125029     0.9250029     0.9375030     0.9500030     0.9625031     0.9750031     0.9875032     1.0000000     0.0000000     0.0125000     0.0250000     0.0375000     0.0500000     0.0624999     0.0749999     0.0874999     0.0999999     0.1124999     0.1249999     0.1374999     0.1500000     0.1625000     0.1750001     0.1875001     0.2000002     0.2125002     0.2250003     0.2375003     0.2500004     0.2625004     0.2750005     0.2875005     0.3000005     0.3125006     0.3250006     0.3375007     0.3500007     0.3625008     0.3750008     0.3875009     0.4000009     0.4125010     0.4250010     0.4375011     0.4500011
     0.4625012     0.4750012     0.4875013     0.5000013     0.5125014     0.5250014     0.5375015     0.5500015     0.5625015     0.5750016     0.5875016     0.6000017     0.6125017     0.6250018     0.6375018     0.6500019     0.6625019     0.6750020     0.6875020     0.7000021     0.7125021     0.7250022     0.7375022     0.7500023     0.7625023     0.7750024     0.7875024     0.8000025     0.8125025     0.8250026     0.8375026     0.8500026     0.8625027     0.8750027     0.8875028     0.9000028     0.9125029     0.9250029     0.9375030     0.9500030     0.9625031     0.9750031     0.9875032     1.0000000     0.0000000     0.0125000     0.0250000     0.0375000     0.0500000     0.0624999     0.0749999     0.0874999     0.0999999     0.1124999     0.1249999     0.1374999     0.1500000     0.1625000     0.1750001     0.1875001     0.2000002     0.2125002     0.2250003     0.2375003     0.2500004     0.2625004     0.2750005     0.2875005     0.3000005     0.3125006     0.3250006     0.3375007     0.3500007     0.3625008     0.3750008     0.3875009     0.4000009     0.4125010     0.4250010     0.4375011     0.4500011     0.4625012     0.4750012     0.4875013     0.5000013     0.5125014     0.5250014     0.5375015     0.5500015     0.5625015     0.5750016     0.5875016     0.6000017     0.6125017     0.6250018     0.6375018     0.6500019     0.6625019     0.6750020     0.6875020
     0.7000021     0.7125021     0.7250022     0.7375022     0.7500023     0.7625023     0.7750024     0.7875024     0.8000025     0.8125025     0.8250026     0.8375026     0.8500026     0.8625027     0.8750027     0.8875028     0.9000028     0.9125029     0.9250029     0.9375030     0.9500030     0.9625031     0.9750031     0.9875032     1.0000000     0.0000000     0.0125000     0.0250000     0.0375000     0.0500000     0.0624999     0.0749999     0.0874999     0.0999999     0.1124999     0.1249999     0.1374999     0.1500000     0.1625000     0.1750001     0.1875001     0.2000002     0.2125002     0.2250003     0.2375003     0.2500004     0.2625004     0.2750005     0.2875005     0.3000005     0.3125006     0.3250006     0.3375007     0.3500007     0.3625008     0.3750008     0.3875009     0.4000009     0.4125010     0.4250010     0.4375011     0.4500011     0.4625012     0.4750012     0.4875013     0.5000013     0.5125014     0.5250014     0.5375015     0.5500015     0.5625015     0.5750016     0.5875016     0.6000017     0.6125017     0.6250018     0.6375018     0.6500019     0.6625019     0.6750020     0.6875020     0.7000021     0.7125021     0.7250022     0.7375022     0.7500023     0.7625023     0.7750024     0.7875024     0.8000025     0.8125025     0.8250026     0.8375026     0.8500026     0.8625027     0.8750027     0.8875028     0.9000028     0.9125029     0.9250029