 VARIABLES = "X", "Y", "P", "U", "V", "GradPX", "GradPY", "GradPX_res", "GradPY_res", "DivV", "DivV_res", "LapP", "LapP_res", "DivVP", "DivVP_res"
 ZONE I=          21 , J=          21 , DATAPACKING=BLOCK, VARLOCATION=([3-30]=CELLCENTERED)
     0.0000000     0.0500000     0.1000000     0.1500000     0.2000000     0.2500000     0.2600000     0.3100000     0.3600000     0.4100000     0.4600000     0.5100000     0.5600000     0.6100000     0.6600000     0.7100000     0.7600000     0.8100000     0.8600000     0.9100000     1.0000000     0.0000000     0.0500000     0.1000000     0.1500000     0.2000000     0.2500000     0.2642105     0.3142105     0.3642105     0.4142105     0.4642105     0.5142105     0.5642105     0.6142105     0.6642105     0.7142105     0.7642105     0.8142105     0.8642105     0.9142105     1.0000000     0.0000000     0.0500000     0.1000000     0.1500000     0.2000000     0.2500000     0.2684211     0.3184211     0.3684211     0.4184211     0.4684211     0.5184211     0.5684211     0.6184211     0.6684211     0.7184211     0.7684211     0.8184211     0.8684211     0.9184211     1.0000000     0.0000000     0.0500000     0.1000000     0.1500000     0.2000000     0.2500000     0.2726316     0.3226316     0.3726316     0.4226316     0.4726316     0.5226316     0.5726316     0.6226316     0.6726316     0.7226316     0.7726316     0.8226316     0.8726316     0.9226316     1.0000000     0.0000000     0.0500000     0.1000000     0.1500000     0.2000000     0.2500000     0.2768421     0.3268421     0.3768421     0.4268421     0.4768421     0.5268421     0.5768421     0.6268421     0.6768421     0.7268421
     0.7768421     0.8268421     0.8768421     0.9268421     1.0000000     0.0000000     0.0500000     0.1000000     0.1500000     0.2000000     0.2500000     0.2810526     0.3310526     0.3810526     0.4310526     0.4810526     0.5310526     0.5810526     0.6310526     0.6810526     0.7310526     0.7810526     0.8310526     0.8810526     0.9310526     1.0000000     0.0000000     0.0500000     0.1000000     0.1500000     0.2000000     0.2500000     0.2852632     0.3352632     0.3852632     0.4352632     0.4852632     0.5352632     0.5852632     0.6352632     0.6852632     0.7352632     0.7852632     0.8352632     0.8852632     0.9352632     1.0000000     0.0000000     0.0500000     0.1000000     0.1500000     0.2000000     0.2500000     0.2894737     0.3394737     0.3894737     0.4394737     0.4894737     0.5394737     0.5894737     0.6394737     0.6894737     0.7394737     0.7894737     0.8394737     0.8894737     0.9394737     1.0000000     0.0000000     0.0500000     0.1000000     0.1500000     0.2000000     0.2500000     0.2936842     0.3436842     0.3936842     0.4436842     0.4936842     0.5436842     0.5936842     0.6436842     0.6936842     0.7436842     0.7936842     0.8436842     0.8936842     0.9436842     1.0000000     0.0000000     0.0500000     0.1000000     0.1500000     0.2000000     0.2500000     0.2978947     0.3478947     0.3978947     0.4478947     0.4978947
     0.5478947     0.5978947     0.6478947     0.6978947     0.7478947     0.7978947     0.8478947     0.8978947     0.9478947     1.0000000     0.0000000     0.0400000     0.0900000     0.1400000     0.1900000     0.2400000     0.3021053     0.3521053     0.4021053     0.4521053     0.5021053     0.5521053     0.6021053     0.6521053     0.7021053     0.7521053     0.8021053     0.8521053     0.9021053     0.9521053     1.0000000     0.0000000     0.0600000     0.1100000     0.1600000     0.2100000     0.2600000     0.3063158     0.3563158     0.4063158     0.4563158     0.5063158     0.5563158     0.6063158     0.6563158     0.7063158     0.7563158     0.8063158     0.8563158     0.9063158     0.9563158     1.0000000     0.0000000     0.0400000     0.0900000     0.1400000     0.1900000     0.2400000     0.3105263     0.3605263     0.4105263     0.4605263     0.5105263     0.5605263     0.6105263     0.6605263     0.7105263     0.7605263     0.8105263     0.8605263     0.9105263     0.9605263     1.0000000     0.0000000     0.0600000     0.1100000     0.1600000     0.2100000     0.2600000     0.3147368     0.3647368     0.4147368     0.4647368     0.5147368     0.5647368     0.6147368     0.6647368     0.7147368     0.7647368     0.8147368     0.8647368     0.9147368     0.9647368     1.0000000     0.0000000     0.0400000     0.0900000     0.1400000     0.1900000     0.2400000
     0.3189474     0.3689474     0.4189474     0.4689474     0.5189474     0.5689474     0.6189474     0.6689474     0.7189474     0.7689474     0.8189474     0.8689474     0.9189474     0.9689474     1.0000000     0.0000000     0.0600000     0.1100000     0.1600000     0.2100000     0.2600000     0.3231579     0.3731579     0.4231579     0.4731579     0.5231579     0.5731579     0.6231579     0.6731579     0.7231579     0.7731579     0.8231579     0.8731579     0.9231579     0.9731579     1.0000000     0.0000000     0.0400000     0.0900000     0.1400000     0.1900000     0.2400000     0.3273684     0.3773684     0.4273684     0.4773684     0.5273684     0.5773684     0.6273684     0.6773684     0.7273684     0.7773684     0.8273684     0.8773684     0.9273684     0.9773684     1.0000000     0.0000000     0.0600000     0.1100000     0.1600000     0.2100000     0.2600000     0.3315789     0.3815789     0.4315789     0.4815789     0.5315789     0.5815789     0.6315789     0.6815789     0.7315789     0.7815789     0.8315789     0.8815789     0.9315789     0.9815789     1.0000000     0.0000000     0.0400000     0.0900000     0.1400000     0.1900000     0.2400000     0.3357895     0.3857895     0.4357895     0.4857895     0.5357895     0.5857895     0.6357895     0.6857895     0.7357895     0.7857895     0.8357895     0.8857895     0.9357895     0.9857895     1.0000000     0.0000000
     0.0600000     0.1100000     0.1600000     0.2100000     0.2600000     0.3400000     0.3900000     0.4400000     0.4900000     0.5400000     0.5900000     0.6400000     0.6900000     0.7400000     0.7900000     0.8400000     0.8900000     0.9400000     0.9900000     1.0000000     0.0000000     0.0500000     0.1000000     0.1500000     0.2000000     0.2500000     0.3442105     0.3942105     0.4442105     0.4942105     0.5442105     0.5942105     0.6442105     0.6942105     0.7442105     0.7942105     0.8442105     0.8942105     0.9442105     0.9942105     1.0000000
     0.0000000     0.0000000     0.0000000     0.0000000     0.0000000     0.0000000     0.0000000     0.0000000     0.0000000     0.0000000     0.0000000     0.0000000     0.0000000     0.0000000     0.0000000     0.0000000     0.0000000     0.0000000     0.0000000     0.0000000     0.0000000     0.0500000     0.0500000     0.0500000     0.0500000     0.0500000     0.0500000     0.0500000     0.0500000     0.0500000     0.0500000     0.0500000     0.0500000     0.0500000     0.0600000     0.0400000     0.0600000     0.0400000     0.0600000     0.0400000     0.0600000     0.0500000     0.1000000     0.1000000     0.1000000     0.1000000     0.1000000     0.1000000     0.1000000     0.1000000     0.1000000     0.1000000     0.1000000     0.1000000     0.1000000     0.1100000     0.0900000     0.1100000     0.0900000     0.1100000     0.0900000     0.1100000     0.1000000     0.1500000     0.1500000     0.1500000     0.1500000     0.1500000     0.1500000     0.1500000     0.1500000     0.1500000     0.1500000     0.1500000     0.1500000     0.1500000     0.1600000     0.1400000     0.1600000     0.1400000     0.1600000     0.1400000     0.1600000     0.1500000     0.2000000     0.2000000     0.2000000     0.2000000     0.2000000     0.2000000     0.2000000     0.2000000     0.2000000     0.2000000     0.2000000     0.2000000     0.2000000     0.2100000     0.1900000     0.2100000
     0.1900000     0.2100000     0.1900000     0.2100000     0.2000000     0.2500000     0.2500000     0.2500000     0.2500000     0.2500000     0.2500000     0.2500000     0.2500000     0.2500000     0.2500000     0.2500000     0.2500000     0.2500000     0.2600000     0.2400000     0.2600000     0.2400000     0.2600000     0.2400000     0.2600000     0.2500000     0.3000000     0.3000000     0.3000000     0.3000000     0.3000000     0.3000000     0.3000000     0.3000000     0.3000000     0.3000000     0.3000000     0.3000000     0.3000000     0.3100000     0.2900000     0.3100000     0.2900000     0.3100000     0.2900000     0.3100000     0.3000000     0.3500000     0.3500000     0.3500000     0.3500000     0.3500000     0.3500000     0.3500000     0.3500000     0.3500000     0.3500000     0.3500000     0.3500000     0.3500000     0.3600000     0.3400000     0.3600000     0.3400000     0.3600000     0.3400000     0.3600000     0.3500000     0.4000000     0.4000000     0.4000000     0.4000000     0.4000000     0.4000000     0.4000000     0.4000000     0.4000000     0.4000000     0.4000000     0.4000000     0.4000000     0.4100000     0.3900000     0.4100000     0.3900000     0.4100000     0.3900000     0.4100000     0.4000000     0.4500000     0.4500000     0.4500000     0.4500000     0.4500000     0.4500000     0.4500000     0.4500000     0.4500000     0.4500000     0.4500000
     0.4500000     0.4500000     0.4600000     0.4400000     0.4600000     0.4400000     0.4600000     0.4400000     0.4600000     0.4500000     0.5000000     0.5000000     0.5000000     0.5000000     0.5000000     0.5000000     0.5000000     0.5000000     0.5000000     0.5000000     0.5000000     0.5000000     0.5000000     0.5100000     0.4900000     0.5100000     0.4900000     0.5100000     0.4900000     0.5100000     0.5000000     0.5500000     0.5500000     0.5500000     0.5500000     0.5500000     0.5500000     0.5500000     0.5500000     0.5500000     0.5500000     0.5500000     0.5500000     0.5500000     0.5600000     0.5400000     0.5600000     0.5400000     0.5600000     0.5400000     0.5600000     0.5500000     0.6000000     0.6000000     0.6000000     0.6000000     0.6000000     0.6000000     0.6000000     0.6000000     0.6000000     0.6000000     0.6000000     0.6000000     0.6000000     0.6100000     0.5900000     0.6100000     0.5900000     0.6100000     0.5900000     0.6100000     0.6000000     0.6500000     0.6500000     0.6500000     0.6500000     0.6500000     0.6500000     0.6500000     0.6500000     0.6500000     0.6500000     0.6500000     0.6500000     0.6500000     0.6600000     0.6400000     0.6600000     0.6400000     0.6600000     0.6400000     0.6600000     0.6500000     0.7000000     0.7000000     0.7000000     0.7000000     0.7000000     0.7000000
     0.7000000     0.7000000     0.7000000     0.7000000     0.7000000     0.7000000     0.7000000     0.7100000     0.6900000     0.7100000     0.6900000     0.7100000     0.6900000     0.7100000     0.7000000     0.7500000     0.7500000     0.7500000     0.7500000     0.7500000     0.7500000     0.7500000     0.7500000     0.7500000     0.7500000     0.7500000     0.7500000     0.7500000     0.7600000     0.7400000     0.7600000     0.7400000     0.7600000     0.7400000     0.7600000     0.7500000     0.8000000     0.8000000     0.8000000     0.8000000     0.8000000     0.8000000     0.8000000     0.8000000     0.8000000     0.8000000     0.8000000     0.8000000     0.8000000     0.8100000     0.7900000     0.8100000     0.7900000     0.8100000     0.7900000     0.8100000     0.8000000     0.8500000     0.8500000     0.8500000     0.8500000     0.8500000     0.8500000     0.8500000     0.8500000     0.8500000     0.8500000     0.8500000     0.8500000     0.8500000     0.8600000     0.8400000     0.8600000     0.8400000     0.8600000     0.8400000     0.8600000     0.8500000     0.9000000     0.9000000     0.9000000     0.9000000     0.9000000     0.9000000     0.9000000     0.9000000     0.9000000     0.9000000     0.9000000     0.9000000     0.9000000     0.9100000     0.8900000     0.9100000     0.8900000     0.9100000     0.8900000     0.9100000     0.9000000     0.9500000
     0.9500000     0.9500000     0.9500000     0.9500000     0.9500000     0.9500000     0.9500000     0.9500000     0.9500000     0.9500000     0.9500000     0.9500000     0.9600000     0.9400000     0.9600000     0.9400000     0.9600000     0.9400000     0.9600000     0.9500000     1.0000000     1.0000000     1.0000000     1.0000000     1.0000000     1.0000000     1.0000000     1.0000000     1.0000000     1.0000000     1.0000000     1.0000000     1.0000000     1.0000000     1.0000000     1.0000000     1.0000000     1.0000000     1.0000000     1.0000000     1.0000000
     0.0012500     0.0062500     0.0162500     0.0312500     0.0512500     0.0662536     0.0830544     0.1142649     0.1504755     0.1916860     0.2378965     0.2891070     0.3468605     0.4035251     0.4762004     0.5404662     0.6241173     0.6974073     0.7920341     0.9117795     0.0062500     0.0112500     0.0212500     0.0362500     0.0562500     0.0724129     0.0904899     0.1221215     0.1587531     0.2003846     0.2470162     0.2986478     0.3560544     0.4169110     0.4835425     0.5551741     0.6318057     0.7134373     0.8000689     0.9243208     0.0162500     0.0212500     0.0312500     0.0462500     0.0662500     0.0835718     0.1029608     0.1350135     0.1720661     0.2141187     0.2611714     0.3132240     0.3715516     0.4323293     0.4993819     0.5714345     0.6484872     0.7305398     0.8175924     0.9388178     0.0312500     0.0362500     0.0462500     0.0612500     0.0812500     0.0997321     0.1204672     0.1529409     0.1904145     0.2328882     0.2803619     0.3328356     0.3920843     0.4527830     0.5202567     0.5927303     0.6702040     0.7526777     0.8401514     0.9583210     0.0512500     0.0562500     0.0662500     0.0812500     0.1012500     0.1208948     0.1430090     0.1759037     0.2137985     0.2566932     0.3045879     0.3574827     0.4176524     0.4782721     0.5461669     0.6190616     0.6969563     0.7798511     0.8677458     0.9828301
     0.0762500     0.0812500     0.0912500     0.1062500     0.1262500     0.1470611     0.1705863     0.2039021     0.2422179     0.2855337     0.3338495     0.3871652     0.4482560     0.5087968     0.5771126     0.6504284     0.7287442     0.8120600     0.9003758     1.0123449     0.1062500     0.1112500     0.1212500     0.1362500     0.1562500     0.1782315     0.2031990     0.2369359     0.2756727     0.3194096     0.3681464     0.4218833     0.4838951     0.5443570     0.6130938     0.6868307     0.7655675     0.8493043     0.9380412     1.0468651     0.1412500     0.1462500     0.1562500     0.1712500     0.1912500     0.2144068     0.2408472     0.2750051     0.3141630     0.3583209     0.4074788     0.4616367     0.5245696     0.5849525     0.6541104     0.7282683     0.8074262     0.8915841     0.9807420     1.0863903     0.1812500     0.1862500     0.1962500     0.2112500     0.2312500     0.2555876     0.2835309     0.3181098     0.3576888     0.4022677     0.4518467     0.5064256     0.5702795     0.6305835     0.7001624     0.7747414     0.8543203     0.9388993     1.0284782     1.1309203     0.2249006     0.2305250     0.2400250     0.2545250     0.2740250     0.3013716     0.3312500     0.3662500     0.4062500     0.4512500     0.5012500     0.5562500     0.6210250     0.6812500     0.7512500     0.8262500     0.9062500     0.9912500     1.0812500     1.1804547
     0.2788805     0.2812500     0.2912500     0.3062500     0.3262500     0.3499566     0.3840046     0.4194256     0.4598467     0.5052678     0.5556888     0.6111099     0.6768059     0.7369520     0.8073730     0.8827941     0.9632151     1.0486362     1.1390572     1.2349933     0.3284844     0.3362500     0.3462500     0.3612500     0.3812500     0.4112303     0.4417946     0.4776367     0.5184788     0.5643209     0.6151630     0.6710051     0.7376222     0.7976893     0.8685314     0.9443735     1.0252156     1.1110578     1.2018999     1.2945356     0.3943710     0.3962500     0.4062500     0.4212500     0.4412500     0.4670986     0.5046201     0.5408832     0.5821464     0.6284095     0.6796727     0.7359358     0.8034740     0.8634621     0.9347253     1.0109885     1.0922516     1.1785148     1.2697779     1.3590818     0.4529939     0.4612500     0.4712500     0.4862500     0.5062500     0.5388765     0.5724810     0.6091652     0.6508494     0.6975337     0.7492179     0.8059021     0.8743613     0.9342705     1.0059547     1.0826389     1.1643231     1.2510073     1.3426915     1.4286324     0.5298616     0.5312500     0.5412500     0.5562500     0.5762500     0.6043037     0.6453774     0.6824827     0.7245880     0.7716932     0.8237985     0.8809038     0.9502840     1.0101143     1.0822196     1.1593248     1.2414301     1.3285354     1.4206406     1.5031886
     0.5975033     0.6062500     0.6162500     0.6312500     0.6512500     0.6865204     0.7233093     0.7608356     0.8033619     0.8508882     0.9034145     0.9609408     1.0312422     1.0909935     1.1635198     1.2410461     1.3235724     1.4110987     1.5036251     1.5827536     0.6853521     0.6862500     0.6962500     0.7112500     0.7312500     0.7615665     0.8062766     0.8442239     0.8871713     0.9351187     0.9880660     1.0460134     1.1172358     1.1769081     1.2498555     1.3278029     1.4107502     1.4986976     1.5916449     1.6673349     0.7620128     0.7712500     0.7812500     0.7962500     0.8162500     0.8541692     0.8942794     0.9326478     0.9760162     1.0243846     1.0777530     1.1361215     1.2082649     1.2678583     1.3412267     1.4195951     1.5029636     1.5913320     1.6847004     1.7569492     0.8608427     0.8612500     0.8712500     0.8862500     0.9062500     0.9388830     0.9873176     1.0261071     1.0698965     1.1186860     1.1724755     1.2312650     1.3043294     1.3638439     1.4376334     1.5164229     1.6002123     1.6890018     1.7827913     1.8516347     0.9490858     0.9570250     0.9675250     0.9830250     1.0035250     1.0421547     1.0853913     1.1246018     1.1688123     1.2180228     1.2722334     1.3314439     1.3983060     1.4664424     1.5334084     1.6203434     1.6963336     1.7942444     1.8792588     1.9444006
     0.0250000     0.0750000     0.1250000     0.1750000     0.2250000     0.2560969     0.2871053     0.3371053     0.3871053     0.4371053     0.4871053     0.5371052     0.5882947     0.6347056     0.6895843     0.7347056     0.7895843     0.8347056     0.8895843     0.9544828     0.0250000     0.0750000     0.1250000     0.1750000     0.2250000     0.2582021     0.2913158     0.3413158     0.3913158     0.4413158     0.4913158     0.5413158     0.5913158     0.6413158     0.6913158     0.7413158     0.7913158     0.8413158     0.8913158     0.9581140     0.0250000     0.0750000     0.1250000     0.1750000     0.2250000     0.2603074     0.2955263     0.3455264     0.3955263     0.4455264     0.4955263     0.5455263     0.5955263     0.6455264     0.6955264     0.7455264     0.7955263     0.8455263     0.8955264     0.9602193     0.0250000     0.0750000     0.1250000     0.1750000     0.2250000     0.2624127     0.2997368     0.3497368     0.3997369     0.4497369     0.4997369     0.5497369     0.5997368     0.6497369     0.6997369     0.7497369     0.7997369     0.8497368     0.8997369     0.9623246     0.0250000     0.0750000     0.1250000     0.1750000     0.2250000     0.2645179     0.3039474     0.3539473     0.4039473     0.4539473     0.5039474     0.5539473     0.6039473     0.6539474     0.7039474     0.7539474     0.8039474     0.8539474     0.9039474     0.9644299
     0.0250000     0.0750000     0.1250000     0.1750000     0.2250000     0.2666232     0.3081579     0.3581579     0.4081579     0.4581579     0.5081579     0.5581579     0.6081579     0.6581579     0.7081579     0.7581579     0.8081579     0.8581579     0.9081579     0.9665352     0.0250000     0.0750000     0.1250000     0.1750000     0.2250000     0.2687285     0.3123684     0.3623684     0.4123685     0.4623684     0.5123684     0.5623685     0.6123685     0.6623684     0.7123684     0.7623684     0.8123685     0.8623684     0.9123684     0.9686405     0.0250000     0.0750000     0.1250000     0.1750000     0.2250000     0.2708337     0.3165789     0.3665789     0.4165790     0.4665790     0.5165789     0.5665790     0.6165789     0.6665790     0.7165789     0.7665790     0.8165789     0.8665789     0.9165790     0.9707459     0.0250000     0.0750000     0.1250000     0.1750000     0.2250000     0.2729390     0.3207894     0.3707895     0.4207894     0.4707895     0.5207894     0.5707895     0.6207895     0.6707895     0.7207895     0.7707894     0.8207895     0.8707895     0.9207895     0.9728512     0.0227475     0.0700000     0.1200000     0.1700000     0.2200000     0.2722967     0.3250000     0.3750000     0.4250000     0.4750000     0.5250000     0.5750000     0.6250000     0.6750000     0.7250000     0.7750000     0.8250000     0.8750000     0.9250000     0.9749566
     0.0259629     0.0750000     0.1250000     0.1750000     0.2250000     0.2761866     0.3292106     0.3792106     0.4292106     0.4792106     0.5292105     0.5792106     0.6292106     0.6792105     0.7292106     0.7792106     0.8292105     0.8792106     0.9292106     0.9770621     0.0259629     0.0750000     0.1250000     0.1750000     0.2250000     0.2782919     0.3334210     0.3834210     0.4334210     0.4834210     0.5334210     0.5834210     0.6334211     0.6834211     0.7334211     0.7834210     0.8334211     0.8834211     0.9334211     0.9791675     0.0259629     0.0750000     0.1250000     0.1750000     0.2250000     0.2803971     0.3376316     0.3876315     0.4376316     0.4876315     0.5376316     0.5876316     0.6376315     0.6876315     0.7376316     0.7876315     0.8376316     0.8876315     0.9376315     0.9812730     0.0259629     0.0750000     0.1250000     0.1750000     0.2250000     0.2825024     0.3418421     0.3918421     0.4418421     0.4918421     0.5418421     0.5918421     0.6418421     0.6918421     0.7418421     0.7918421     0.8418421     0.8918421     0.9418421     0.9833787     0.0259629     0.0750000     0.1250000     0.1750000     0.2250000     0.2846077     0.3460527     0.3960527     0.4460527     0.4960527     0.5460527     0.5960527     0.6460527     0.6960527     0.7460526     0.7960526     0.8460526     0.8960527     0.9460526     0.9854845
     0.0259629     0.0750000     0.1250000     0.1750000     0.2250000     0.2867129     0.3502631     0.4002631     0.4502632     0.5002631     0.5502631     0.6002632     0.6502632     0.7002632     0.7502631     0.8002631     0.8502631     0.9002632     0.9502631     0.9875906     0.0259629     0.0750000     0.1250000     0.1750000     0.2250000     0.2888182     0.3544737     0.4044736     0.4544737     0.5044736     0.5544736     0.6044736     0.6544737     0.7044737     0.7544737     0.8044737     0.8544737     0.9044737     0.9544737     0.9896971     0.0259629     0.0750000     0.1250000     0.1750000     0.2250000     0.2909234     0.3586842     0.4086842     0.4586842     0.5086842     0.5586842     0.6086842     0.6586842     0.7086842     0.7586842     0.8086842     0.8586842     0.9086842     0.9586842     0.9918044     0.0259629     0.0750000     0.1250000     0.1750000     0.2250000     0.2930287     0.3628948     0.4128947     0.4628947     0.5128947     0.5628947     0.6128947     0.6628947     0.7128948     0.7628947     0.8128947     0.8628948     0.9128948     0.9628948     0.9939134     0.0277475     0.0800000     0.1300000     0.1800000     0.2300000     0.2983493     0.3671053     0.4171053     0.4671052     0.5171053     0.5671053     0.6171052     0.6657939     0.7195049     0.7646262     0.8195049     0.8646262     0.9195049     0.9646262     0.9963232
     0.0250000     0.0250000     0.0250000     0.0250000     0.0250000     0.0258462     0.0250000     0.0250000     0.0250000     0.0250000     0.0250000     0.0250000     0.0277468     0.0259594     0.0259594     0.0259594     0.0259594     0.0259594     0.0259594     0.0272402     0.0750000     0.0750000     0.0750000     0.0750000     0.0750000     0.0757926     0.0750000     0.0750000     0.0750000     0.0750000     0.0750000     0.0750000     0.0800000     0.0750000     0.0750000     0.0750000     0.0750000     0.0750000     0.0750000     0.0796144     0.1250000     0.1250000     0.1250000     0.1250000     0.1250000     0.1257453     0.1250000     0.1250000     0.1250000     0.1250000     0.1250000     0.1250000     0.1300000     0.1250000     0.1250000     0.1250000     0.1250000     0.1250000     0.1250000     0.1296023     0.1750000     0.1750000     0.1750000     0.1750000     0.1750000     0.1757034     0.1750000     0.1750000     0.1750000     0.1750000     0.1750000     0.1750000     0.1800000     0.1750000     0.1750000     0.1750000     0.1750000     0.1750000     0.1750000     0.1795895     0.2250000     0.2250000     0.2250000     0.2250000     0.2250000     0.2256659     0.2250000     0.2250000     0.2250000     0.2250000     0.2250000     0.2250000     0.2300000     0.2250000     0.2250000     0.2250000     0.2250000     0.2250000     0.2250000     0.2295759
     0.2750000     0.2750000     0.2750000     0.2750000     0.2750000     0.2756322     0.2750000     0.2750000     0.2750000     0.2750000     0.2750000     0.2750000     0.2800000     0.2750000     0.2750000     0.2750000     0.2750000     0.2750000     0.2750000     0.2795614     0.3250000     0.3250000     0.3250000     0.3250000     0.3250000     0.3256018     0.3250000     0.3250000     0.3250000     0.3250000     0.3250000     0.3250000     0.3300000     0.3250000     0.3250000     0.3250000     0.3250000     0.3250000     0.3250000     0.3295460     0.3750000     0.3750000     0.3750000     0.3750000     0.3750000     0.3755742     0.3750000     0.3750000     0.3750000     0.3750000     0.3750000     0.3750000     0.3800000     0.3750000     0.3750000     0.3750000     0.3750000     0.3750000     0.3750000     0.3795297     0.4250000     0.4250000     0.4250000     0.4250000     0.4250000     0.4255489     0.4250000     0.4250000     0.4250000     0.4250000     0.4250000     0.4250000     0.4300000     0.4250000     0.4250000     0.4250000     0.4250000     0.4250000     0.4250000     0.4295123     0.4736910     0.4750000     0.4750000     0.4750000     0.4750000     0.4766824     0.4750000     0.4750000     0.4750000     0.4750000     0.4750000     0.4750000     0.4800000     0.4750000     0.4750000     0.4750000     0.4750000     0.4750000     0.4750000     0.4794938
     0.5274528     0.5250000     0.5250000     0.5250000     0.5250000     0.5231420     0.5250000     0.5250000     0.5250000     0.5250000     0.5250000     0.5250000     0.5300000     0.5250000     0.5250000     0.5250000     0.5250000     0.5250000     0.5250000     0.5294743     0.5725472     0.5750000     0.5750000     0.5750000     0.5750000     0.5777403     0.5750000     0.5750000     0.5750000     0.5750000     0.5750000     0.5750000     0.5800000     0.5750000     0.5750000     0.5750000     0.5750000     0.5750000     0.5750000     0.5794537     0.6274528     0.6250000     0.6250000     0.6250000     0.6250000     0.6232784     0.6250000     0.6250000     0.6250000     0.6250000     0.6250000     0.6250000     0.6300000     0.6250000     0.6250000     0.6250000     0.6250000     0.6250000     0.6250000     0.6294323     0.6725472     0.6750000     0.6750000     0.6750000     0.6750000     0.6775462     0.6750000     0.6750000     0.6750000     0.6750000     0.6750000     0.6750000     0.6800000     0.6750000     0.6750000     0.6750000     0.6750000     0.6750000     0.6750000     0.6794106     0.7274528     0.7250000     0.7250000     0.7250000     0.7250000     0.7233962     0.7250000     0.7250000     0.7250000     0.7250000     0.7250000     0.7250000     0.7300000     0.7250000     0.7250000     0.7250000     0.7250000     0.7250000     0.7250000     0.7293894
     0.7725472     0.7750000     0.7750000     0.7750000     0.7750000     0.7773777     0.7750000     0.7750000     0.7750000     0.7750000     0.7750000     0.7750000     0.7800000     0.7750000     0.7750000     0.7750000     0.7750000     0.7750000     0.7750000     0.7793705     0.8274528     0.8250000     0.8250000     0.8250000     0.8250000     0.8234990     0.8250000     0.8250000     0.8250000     0.8250000     0.8250000     0.8250000     0.8300000     0.8250000     0.8250000     0.8250000     0.8250000     0.8250000     0.8250000     0.8293579     0.8725472     0.8750000     0.8750000     0.8750000     0.8750000     0.8772302     0.8750000     0.8750000     0.8750000     0.8750000     0.8750000     0.8750000     0.8800000     0.8750000     0.8750000     0.8750000     0.8750000     0.8750000     0.8750000     0.8793595     0.9274528     0.9250000     0.9250000     0.9250000     0.9250000     0.9235893     0.9250000     0.9250000     0.9250000     0.9250000     0.9250000     0.9250000     0.9300000     0.9250000     0.9250000     0.9250000     0.9250000     0.9250000     0.9250000     0.9293928     0.9738151     0.9750000     0.9750000     0.9750000     0.9750000     0.9762901     0.9750000     0.9750000     0.9750000     0.9750000     0.9750000     0.9750000     0.9772535     0.9740406     0.9740406     0.9740406     0.9740406     0.9740406     0.9740406     0.9755719