 VARIABLES = "X", "Y", "P", "U", "V", "GradPX", "GradPY", "GradPX_res", "GradPY_res", "DivV", "DivV_res", "LapP", "LapP_res", "DivVP", "DivVP_res"
 ZONE I=          21 , J=          21 , DATAPACKING=BLOCK, VARLOCATION=([3-30]=CELLCENTERED)
     0.0000000     0.0500000     0.1000000     0.1500000     0.2000000     0.2500000     0.3000000     0.3500000     0.4000000     0.4500000     0.5000000     0.5500000     0.6000000     0.6500000     0.7000000     0.7500000     0.8000000     0.8500000     0.9000000     0.9500000     1.0000000     0.0000000     0.0500000     0.1000000     0.1500000     0.2000000     0.2500000     0.3000000     0.3500000     0.4000000     0.4500000     0.5000000     0.5500000     0.6000000     0.6500000     0.7000000     0.7500000     0.8000000     0.8500000     0.9000000     0.9500000     1.0000000     0.0000000     0.0500000     0.1000000     0.1500000     0.2000000     0.2500000     0.3000000     0.3500000     0.4000000     0.4500000     0.5000000     0.5500000     0.6000000     0.6500000     0.7000000     0.7500000     0.8000000     0.8500000     0.9000000     0.9500000     1.0000000     0.0000000     0.0500000     0.1000000     0.1500000     0.2000000     0.2500000     0.3000000     0.3500000     0.4000000     0.4500000     0.5000000     0.5500000     0.6000000     0.6500000     0.7000000     0.7500000     0.8000000     0.8500000     0.9000000     0.9500000     1.0000000     0.0000000     0.0500000     0.1000000     0.1500000     0.2000000     0.2500000     0.3000000     0.3500000     0.4000000     0.4500000     0.5000000     0.5500000     0.6000000     0.6500000     0.7000000     0.7500000
     0.8000000     0.8500000     0.9000000     0.9500000     1.0000000     0.0000000     0.0500000     0.1000000     0.1500000     0.2000000     0.2500000     0.3000000     0.3500000     0.4000000     0.4500000     0.5000000     0.5500000     0.6000000     0.6500000     0.7000000     0.7500000     0.8000000     0.8500000     0.9000000     0.9500000     1.0000000     0.0000000     0.0500000     0.1000000     0.1500000     0.2000000     0.2500000     0.3000000     0.3500000     0.4000000     0.4500000     0.5000000     0.5500000     0.6000000     0.6500000     0.7000000     0.7500000     0.8000000     0.8500000     0.9000000     0.9500000     1.0000000     0.0000000     0.0500000     0.1000000     0.1500000     0.2000000     0.2500000     0.3000000     0.3500000     0.4000000     0.4500000     0.5000000     0.5500000     0.6000000     0.6500000     0.7000000     0.7500000     0.8000000     0.8500000     0.9000000     0.9500000     1.0000000     0.0000000     0.0500000     0.1000000     0.1500000     0.2000000     0.2500000     0.3000000     0.3500000     0.4000000     0.4500000     0.5000000     0.5500000     0.6000000     0.6500000     0.7000000     0.7500000     0.8000000     0.8500000     0.9000000     0.9500000     1.0000000     0.0000000     0.0500000     0.1000000     0.1500000     0.2000000     0.2500000     0.3000000     0.3500000     0.4000000     0.4500000     0.5000000
     0.5500000     0.6000000     0.6500000     0.7000000     0.7500000     0.8000000     0.8500000     0.9000000     0.9500000     1.0000000     0.0000000     0.0500000     0.1000000     0.1500000     0.2000000     0.2500000     0.3000000     0.3500000     0.4000000     0.4500000     0.5000000     0.5500000     0.6000000     0.6500000     0.7000000     0.7500000     0.8000000     0.8500000     0.9000000     0.9500000     1.0000000     0.0000000     0.0500000     0.1000000     0.1500000     0.2000000     0.2500000     0.3000000     0.3500000     0.4000000     0.4500000     0.5000000     0.5500000     0.6000000     0.6500000     0.7000000     0.7500000     0.8000000     0.8500000     0.9000000     0.9500000     1.0000000     0.0000000     0.0500000     0.1000000     0.1500000     0.2000000     0.2500000     0.3000000     0.3500000     0.4000000     0.4500000     0.5000000     0.5500000     0.6000000     0.6500000     0.7000000     0.7500000     0.8000000     0.8500000     0.9000000     0.9500000     1.0000000     0.0000000     0.0500000     0.1000000     0.1500000     0.2000000     0.2500000     0.3000000     0.3500000     0.4000000     0.4500000     0.5000000     0.5500000     0.6000000     0.6500000     0.7000000     0.7500000     0.8000000     0.8500000     0.9000000     0.9500000     1.0000000     0.0000000     0.0500000     0.1000000     0.1500000     0.2000000     0.2500000
     0.3000000     0.3500000     0.4000000     0.4500000     0.5000000     0.5500000     0.6000000     0.6500000     0.7000000     0.7500000     0.8000000     0.8500000     0.9000000     0.9500000     1.0000000     0.0000000     0.0500000     0.1000000     0.1500000     0.2000000     0.2500000     0.3000000     0.3500000     0.4000000     0.4500000     0.5000000     0.5500000     0.6000000     0.6500000     0.7000000     0.7500000     0.8000000     0.8500000     0.9000000     0.9500000     1.0000000     0.0000000     0.0500000     0.1000000     0.1500000     0.2000000     0.2500000     0.3000000     0.3500000     0.4000000     0.4500000     0.5000000     0.5500000     0.6000000     0.6500000     0.7000000     0.7500000     0.8000000     0.8500000     0.9000000     0.9500000     1.0000000     0.0000000     0.0500000     0.1000000     0.1500000     0.2000000     0.2500000     0.3000000     0.3500000     0.4000000     0.4500000     0.5000000     0.5500000     0.6000000     0.6500000     0.7000000     0.7500000     0.8000000     0.8500000     0.9000000     0.9500000     1.0000000     0.0000000     0.0500000     0.1000000     0.1500000     0.2000000     0.2500000     0.3000000     0.3500000     0.4000000     0.4500000     0.5000000     0.5500000     0.6000000     0.6500000     0.7000000     0.7500000     0.8000000     0.8500000     0.9000000     0.9500000     1.0000000     0.0000000
     0.0500000     0.1000000     0.1500000     0.2000000     0.2500000     0.3000000     0.3500000     0.4000000     0.4500000     0.5000000     0.5500000     0.6000000     0.6500000     0.7000000     0.7500000     0.8000000     0.8500000     0.9000000     0.9500000     1.0000000     0.0000000     0.0500000     0.1000000     0.1500000     0.2000000     0.2500000     0.3000000     0.3500000     0.4000000     0.4500000     0.5000000     0.5500000     0.6000000     0.6500000     0.7000000     0.7500000     0.8000000     0.8500000     0.9000000     0.9500000     1.0000000
     0.0000000     0.0000000     0.0000000     0.0000000     0.0000000     0.0000000     0.0000000     0.0000000     0.0000000     0.0000000     0.0000000     0.0000000     0.0000000     0.0000000     0.0000000     0.0000000     0.0000000     0.0000000     0.0000000     0.0000000     0.0000000     0.0500000     0.0500000     0.0500000     0.0500000     0.0500000     0.0500000     0.0500000     0.0500000     0.0500000     0.0500000     0.0500000     0.0500000     0.0500000     0.0500000     0.0500000     0.0500000     0.0500000     0.0500000     0.0500000     0.0500000     0.0500000     0.1000000     0.1000000     0.1000000     0.1000000     0.1000000     0.1000000     0.1000000     0.1000000     0.1000000     0.1000000     0.1000000     0.1000000     0.1000000     0.1000000     0.1000000     0.1000000     0.1000000     0.1000000     0.1000000     0.1000000     0.1000000     0.1500000     0.1500000     0.1500000     0.1500000     0.1500000     0.1500000     0.1500000     0.1500000     0.1500000     0.1500000     0.1500000     0.1500000     0.1500000     0.1500000     0.1500000     0.1500000     0.1500000     0.1500000     0.1500000     0.1500000     0.1500000     0.2000000     0.2000000     0.2000000     0.2000000     0.2000000     0.2000000     0.2000000     0.2000000     0.2000000     0.2000000     0.2000000     0.2000000     0.2000000     0.2000000     0.2000000     0.2000000
     0.2000000     0.2000000     0.2000000     0.2000000     0.2000000     0.2500000     0.2500000     0.2500000     0.2500000     0.2500000     0.2500000     0.2500000     0.2500000     0.2500000     0.2500000     0.2500000     0.2500000     0.2500000     0.2500000     0.2500000     0.2500000     0.2500000     0.2500000     0.2500000     0.2500000     0.2500000     0.3000000     0.3000000     0.3000000     0.3000000     0.3000000     0.3000000     0.3000000     0.3000000     0.3000000     0.3000000     0.3000000     0.3000000     0.3000000     0.3000000     0.3000000     0.3000000     0.3000000     0.3000000     0.3000000     0.3000000     0.3000000     0.3500000     0.3500000     0.3500000     0.3500000     0.3500000     0.3500000     0.3500000     0.3500000     0.3500000     0.3500000     0.3500000     0.3500000     0.3500000     0.3500000     0.3500000     0.3500000     0.3500000     0.3500000     0.3500000     0.3500000     0.3500000     0.4000000     0.4000000     0.4000000     0.4000000     0.4000000     0.4000000     0.4000000     0.4000000     0.4000000     0.4000000     0.4000000     0.4000000     0.4000000     0.4000000     0.4000000     0.4000000     0.4000000     0.4000000     0.4000000     0.4000000     0.4000000     0.4500000     0.4500000     0.4500000     0.4500000     0.4500000     0.4500000     0.4500000     0.4500000     0.4500000     0.4500000     0.4500000
     0.4500000     0.4500000     0.4500000     0.4500000     0.4500000     0.4500000     0.4500000     0.4500000     0.4500000     0.4500000     0.5000000     0.5000000     0.5000000     0.5000000     0.5000000     0.5000000     0.5000000     0.5000000     0.5000000     0.5000000     0.5000000     0.5000000     0.5000000     0.5000000     0.5000000     0.5000000     0.5000000     0.5000000     0.5000000     0.5000000     0.5000000     0.5500000     0.5500000     0.5500000     0.5500000     0.5500000     0.5500000     0.5500000     0.5500000     0.5500000     0.5500000     0.5500000     0.5500000     0.5500000     0.5500000     0.5500000     0.5500000     0.5500000     0.5500000     0.5500000     0.5500000     0.5500000     0.6000000     0.6000000     0.6000000     0.6000000     0.6000000     0.6000000     0.6000000     0.6000000     0.6000000     0.6000000     0.6000000     0.6000000     0.6000000     0.6000000     0.6000000     0.6000000     0.6000000     0.6000000     0.6000000     0.6000000     0.6000000     0.6500000     0.6500000     0.6500000     0.6500000     0.6500000     0.6500000     0.6500000     0.6500000     0.6500000     0.6500000     0.6500000     0.6500000     0.6500000     0.6500000     0.6500000     0.6500000     0.6500000     0.6500000     0.6500000     0.6500000     0.6500000     0.7000000     0.7000000     0.7000000     0.7000000     0.7000000     0.7000000
     0.7000000     0.7000000     0.7000000     0.7000000     0.7000000     0.7000000     0.7000000     0.7000000     0.7000000     0.7000000     0.7000000     0.7000000     0.7000000     0.7000000     0.7000000     0.7500000     0.7500000     0.7500000     0.7500000     0.7500000     0.7500000     0.7500000     0.7500000     0.7500000     0.7500000     0.7500000     0.7500000     0.7500000     0.7500000     0.7500000     0.7500000     0.7500000     0.7500000     0.7500000     0.7500000     0.7500000     0.8000000     0.8000000     0.8000000     0.8000000     0.8000000     0.8000000     0.8000000     0.8000000     0.8000000     0.8000000     0.8000000     0.8000000     0.8000000     0.8000000     0.8000000     0.8000000     0.8000000     0.8000000     0.8000000     0.8000000     0.8000000     0.8500000     0.8500000     0.8500000     0.8500000     0.8500000     0.8500000     0.8500000     0.8500000     0.8500000     0.8500000     0.8500000     0.8500000     0.8500000     0.8500000     0.8500000     0.8500000     0.8500000     0.8500000     0.8500000     0.8500000     0.8500000     0.9000000     0.9000000     0.9000000     0.9000000     0.9000000     0.9000000     0.9000000     0.9000000     0.9000000     0.9000000     0.9000000     0.9000000     0.9000000     0.9000000     0.9000000     0.9000000     0.9000000     0.9000000     0.9000000     0.9000000     0.9000000     0.9500000
     0.9500000     0.9500000     0.9500000     0.9500000     0.9500000     0.9500000     0.9500000     0.9500000     0.9500000     0.9500000     0.9500000     0.9500000     0.9500000     0.9500000     0.9500000     0.9500000     0.9500000     0.9500000     0.9500000     0.9500000     1.0000000     1.0000000     1.0000000     1.0000000     1.0000000     1.0000000     1.0000000     1.0000000     1.0000000     1.0000000     1.0000000     1.0000000     1.0000000     1.0000000     1.0000000     1.0000000     1.0000000     1.0000000     1.0000000     1.0000000     1.0000000
     0.0012500     0.0062500     0.0162500     0.0312500     0.0512500     0.0762500     0.1062500     0.1412500     0.1812500     0.2262500     0.2762500     0.3312500     0.3912500     0.4562500     0.5262500     0.6012500     0.6812500     0.7662500     0.8562500     0.9512500     0.0062500     0.0112500     0.0212500     0.0362500     0.0562500     0.0812500     0.1112500     0.1462500     0.1862500     0.2312500     0.2812500     0.3362500     0.3962500     0.4612500     0.5312500     0.6062500     0.6862500     0.7712500     0.8612500     0.9562500     0.0162500     0.0212500     0.0312500     0.0462500     0.0662500     0.0912500     0.1212500     0.1562500     0.1962500     0.2412500     0.2912500     0.3462500     0.4062500     0.4712500     0.5412500     0.6162500     0.6962500     0.7812500     0.8712500     0.9662500     0.0312500     0.0362500     0.0462500     0.0612500     0.0812500     0.1062500     0.1362500     0.1712500     0.2112500     0.2562500     0.3062500     0.3612500     0.4212500     0.4862500     0.5562500     0.6312500     0.7112500     0.7962500     0.8862500     0.9812500     0.0512500     0.0562500     0.0662500     0.0812500     0.1012500     0.1262500     0.1562500     0.1912500     0.2312500     0.2762500     0.3262500     0.3812500     0.4412500     0.5062500     0.5762500     0.6512500     0.7312500     0.8162500     0.9062500     1.0012500
     0.0762500     0.0812500     0.0912500     0.1062500     0.1262500     0.1512500     0.1812500     0.2162500     0.2562500     0.3012500     0.3512500     0.4062500     0.4662500     0.5312500     0.6012500     0.6762500     0.7562500     0.8412500     0.9312500     1.0262500     0.1062500     0.1112500     0.1212500     0.1362500     0.1562500     0.1812500     0.2112500     0.2462500     0.2862500     0.3312500     0.3812500     0.4362500     0.4962500     0.5612500     0.6312500     0.7062500     0.7862500     0.8712500     0.9612500     1.0562500     0.1412500     0.1462500     0.1562500     0.1712500     0.1912500     0.2162500     0.2462500     0.2812500     0.3212500     0.3662500     0.4162500     0.4712500     0.5312500     0.5962500     0.6662500     0.7412500     0.8212500     0.9062500     0.9962500     1.0912500     0.1812500     0.1862500     0.1962500     0.2112500     0.2312500     0.2562500     0.2862500     0.3212500     0.3612500     0.4062500     0.4562500     0.5112500     0.5712500     0.6362500     0.7062500     0.7812500     0.8612500     0.9462500     1.0362500     1.1312500     0.2262500     0.2312500     0.2412500     0.2562500     0.2762500     0.3012500     0.3312500     0.3662500     0.4062500     0.4512500     0.5012500     0.5562500     0.6162500     0.6812500     0.7512500     0.8262500     0.9062500     0.9912500     1.0812500     1.1762500
     0.2762500     0.2812500     0.2912500     0.3062500     0.3262500     0.3512500     0.3812500     0.4162500     0.4562500     0.5012500     0.5512500     0.6062500     0.6662500     0.7312500     0.8012500     0.8762500     0.9562500     1.0412500     1.1312500     1.2262500     0.3312500     0.3362500     0.3462500     0.3612500     0.3812500     0.4062500     0.4362500     0.4712500     0.5112500     0.5562500     0.6062500     0.6612500     0.7212500     0.7862500     0.8562500     0.9312500     1.0112500     1.0962500     1.1862500     1.2812500     0.3912500     0.3962500     0.4062500     0.4212500     0.4412500     0.4662500     0.4962500     0.5312500     0.5712500     0.6162500     0.6662500     0.7212500     0.7812500     0.8462500     0.9162500     0.9912500     1.0712500     1.1562500     1.2462500     1.3412500     0.4562500     0.4612500     0.4712500     0.4862500     0.5062500     0.5312500     0.5612500     0.5962500     0.6362500     0.6812500     0.7312500     0.7862500     0.8462500     0.9112500     0.9812500     1.0562500     1.1362500     1.2212500     1.3112500     1.4062500     0.5262500     0.5312500     0.5412500     0.5562500     0.5762500     0.6012500     0.6312500     0.6662500     0.7062500     0.7512500     0.8012500     0.8562500     0.9162500     0.9812500     1.0512500     1.1262500     1.2062500     1.2912500     1.3812500     1.4762500
     0.6012500     0.6062500     0.6162500     0.6312500     0.6512500     0.6762500     0.7062500     0.7412500     0.7812500     0.8262500     0.8762500     0.9312500     0.9912500     1.0562500     1.1262500     1.2012500     1.2812500     1.3662500     1.4562500     1.5512500     0.6812500     0.6862500     0.6962500     0.7112500     0.7312500     0.7562500     0.7862500     0.8212500     0.8612500     0.9062500     0.9562500     1.0112500     1.0712500     1.1362500     1.2062500     1.2812500     1.3612500     1.4462500     1.5362500     1.6312500     0.7662500     0.7712500     0.7812500     0.7962500     0.8162500     0.8412500     0.8712500     0.9062500     0.9462500     0.9912500     1.0412500     1.0962500     1.1562500     1.2212500     1.2912500     1.3662500     1.4462500     1.5312500     1.6212500     1.7162500     0.8562500     0.8612500     0.8712500     0.8862500     0.9062500     0.9312500     0.9612500     0.9962500     1.0362500     1.0812500     1.1312500     1.1862500     1.2462500     1.3112500     1.3812500     1.4562500     1.5362500     1.6212500     1.7112500     1.8062500     0.9512500     0.9562500     0.9662500     0.9812500     1.0012500     1.0262500     1.0562500     1.0912500     1.1312500     1.1762500     1.2262500     1.2812500     1.3412500     1.4062500     1.4762500     1.5512500     1.6312500     1.7162500     1.8062500     1.9012500
     0.0250000     0.0750000     0.1250000     0.1750000     0.2250000     0.2750000     0.3250000     0.3750000     0.4250000     0.4750000     0.5250000     0.5750000     0.6250000     0.6750000     0.7250000     0.7750000     0.8250000     0.8750000     0.9250000     0.9750000     0.0250000     0.0750000     0.1250000     0.1750000     0.2250000     0.2750000     0.3250000     0.3750000     0.4250000     0.4750000     0.5250000     0.5750000     0.6250000     0.6750000     0.7250000     0.7750000     0.8250000     0.8750000     0.9250000     0.9750000     0.0250000     0.0750000     0.1250000     0.1750000     0.2250000     0.2750000     0.3250000     0.3750000     0.4250000     0.4750000     0.5250000     0.5750000     0.6250000     0.6750000     0.7250000     0.7750000     0.8250000     0.8750000     0.9250000     0.9750000     0.0250000     0.0750000     0.1250000     0.1750000     0.2250000     0.2750000     0.3250000     0.3750000     0.4250000     0.4750000     0.5250000     0.5750000     0.6250000     0.6750000     0.7250000     0.7750000     0.8250000     0.8750000     0.9250000     0.9750000     0.0250000     0.0750000     0.1250000     0.1750000     0.2250000     0.2750000     0.3250000     0.3750000     0.4250000     0.4750000     0.5250000     0.5750000     0.6250000     0.6750000     0.7250000     0.7750000     0.8250000     0.8750000     0.9250000     0.9750000
     0.0250000     0.0750000     0.1250000     0.1750000     0.2250000     0.2750000     0.3250000     0.3750000     0.4250000     0.4750000     0.5250000     0.5750000     0.6250000     0.6750000     0.7250000     0.7750000     0.8250000     0.8750000     0.9250000     0.9750000     0.0250000     0.0750000     0.1250000     0.1750000     0.2250000     0.2750000     0.3250000     0.3750000     0.4250000     0.4750000     0.5250000     0.5750000     0.6250000     0.6750000     0.7250000     0.7750000     0.8250000     0.8750000     0.9250000     0.9750000     0.0250000     0.0750000     0.1250000     0.1750000     0.2250000     0.2750000     0.3250000     0.3750000     0.4250000     0.4750000     0.5250000     0.5750000     0.6250000     0.6750000     0.7250000     0.7750000     0.8250000     0.8750000     0.9250000     0.9750000     0.0250000     0.0750000     0.1250000     0.1750000     0.2250000     0.2750000     0.3250000     0.3750000     0.4250000     0.4750000     0.5250000     0.5750000     0.6250000     0.6750000     0.7250000     0.7750000     0.8250000     0.8750000     0.9250000     0.9750000     0.0250000     0.0750000     0.1250000     0.1750000     0.2250000     0.2750000     0.3250000     0.3750000     0.4250000     0.4750000     0.5250000     0.5750000     0.6250000     0.6750000     0.7250000     0.7750000     0.8250000     0.8750000     0.9250000     0.9750000
     0.0250000     0.0750000     0.1250000     0.1750000     0.2250000     0.2750000     0.3250000     0.3750000     0.4250000     0.4750000     0.5250000     0.5750000     0.6250000     0.6750000     0.7250000     0.7750000     0.8250000     0.8750000     0.9250000     0.9750000     0.0250000     0.0750000     0.1250000     0.1750000     0.2250000     0.2750000     0.3250000     0.3750000     0.4250000     0.4750000     0.5250000     0.5750000     0.6250000     0.6750000     0.7250000     0.7750000     0.8250000     0.8750000     0.9250000     0.9750000     0.0250000     0.0750000     0.1250000     0.1750000     0.2250000     0.2750000     0.3250000     0.3750000     0.4250000     0.4750000     0.5250000     0.5750000     0.6250000     0.6750000     0.7250000     0.7750000     0.8250000     0.8750000     0.9250000     0.9750000     0.0250000     0.0750000     0.1250000     0.1750000     0.2250000     0.2750000     0.3250000     0.3750000     0.4250000     0.4750000     0.5250000     0.5750000     0.6250000     0.6750000     0.7250000     0.7750000     0.8250000     0.8750000     0.9250000     0.9750000     0.0250000     0.0750000     0.1250000     0.1750000     0.2250000     0.2750000     0.3250000     0.3750000     0.4250000     0.4750000     0.5250000     0.5750000     0.6250000     0.6750000     0.7250000     0.7750000     0.8250000     0.8750000     0.9250000     0.9750000
     0.0250000     0.0750000     0.1250000     0.1750000     0.2250000     0.2750000     0.3250000     0.3750000     0.4250000     0.4750000     0.5250000     0.5750000     0.6250000     0.6750000     0.7250000     0.7750000     0.8250000     0.8750000     0.9250000     0.9750000     0.0250000     0.0750000     0.1250000     0.1750000     0.2250000     0.2750000     0.3250000     0.3750000     0.4250000     0.4750000     0.5250000     0.5750000     0.6250000     0.6750000     0.7250000     0.7750000     0.8250000     0.8750000     0.9250000     0.9750000     0.0250000     0.0750000     0.1250000     0.1750000     0.2250000     0.2750000     0.3250000     0.3750000     0.4250000     0.4750000     0.5250000     0.5750000     0.6250000     0.6750000     0.7250000     0.7750000     0.8250000     0.8750000     0.9250000     0.9750000     0.0250000     0.0750000     0.1250000     0.1750000     0.2250000     0.2750000     0.3250000     0.3750000     0.4250000     0.4750000     0.5250000     0.5750000     0.6250000     0.6750000     0.7250000     0.7750000     0.8250000     0.8750000     0.9250000     0.9750000     0.0250000     0.0750000     0.1250000     0.1750000     0.2250000     0.2750000     0.3250000     0.3750000     0.4250000     0.4750000     0.5250000     0.5750000     0.6250000     0.6750000     0.7250000     0.7750000     0.8250000     0.8750000     0.9250000     0.9750000
     0.0250000     0.0250000     0.0250000     0.0250000     0.0250000     0.0250000     0.0250000     0.0250000     0.0250000     0.0250000     0.0250000     0.0250000     0.0250000     0.0250000     0.0250000     0.0250000     0.0250000     0.0250000     0.0250000     0.0250000     0.0750000     0.0750000     0.0750000     0.0750000     0.0750000     0.0750000     0.0750000     0.0750000     0.0750000     0.0750000     0.0750000     0.0750000     0.0750000     0.0750000     0.0750000     0.0750000     0.0750000     0.0750000     0.0750000     0.0750000     0.1250000     0.1250000     0.1250000     0.1250000     0.1250000     0.1250000     0.1250000     0.1250000     0.1250000     0.1250000     0.1250000     0.1250000     0.1250000     0.1250000     0.1250000     0.1250000     0.1250000     0.1250000     0.1250000     0.1250000     0.1750000     0.1750000     0.1750000     0.1750000     0.1750000     0.1750000     0.1750000     0.1750000     0.1750000     0.1750000     0.1750000     0.1750000     0.1750000     0.1750000     0.1750000     0.1750000     0.1750000     0.1750000     0.1750000     0.1750000     0.2250000     0.2250000     0.2250000     0.2250000     0.2250000     0.2250000     0.2250000     0.2250000     0.2250000     0.2250000     0.2250000     0.2250000     0.2250000     0.2250000     0.2250000     0.2250000     0.2250000     0.2250000     0.2250000     0.2250000
     0.2750000     0.2750000     0.2750000     0.2750000     0.2750000     0.2750000     0.2750000     0.2750000     0.2750000     0.2750000     0.2750000     0.2750000     0.2750000     0.2750000     0.2750000     0.2750000     0.2750000     0.2750000     0.2750000     0.2750000     0.3250000     0.3250000     0.3250000     0.3250000     0.3250000     0.3250000     0.3250000     0.3250000     0.3250000     0.3250000     0.3250000     0.3250000     0.3250000     0.3250000     0.3250000     0.3250000     0.3250000     0.3250000     0.3250000     0.3250000     0.3750000     0.3750000     0.3750000     0.3750000     0.3750000     0.3750000     0.3750000     0.3750000     0.3750000     0.3750000     0.3750000     0.3750000     0.3750000     0.3750000     0.3750000     0.3750000     0.3750000     0.3750000     0.3750000     0.3750000     0.4250000     0.4250000     0.4250000     0.4250000     0.4250000     0.4250000     0.4250000     0.4250000     0.4250000     0.4250000     0.4250000     0.4250000     0.4250000     0.4250000     0.4250000     0.4250000     0.4250000     0.4250000     0.4250000     0.4250000     0.4750000     0.4750000     0.4750000     0.4750000     0.4750000     0.4750000     0.4750000     0.4750000     0.4750000     0.4750000     0.4750000     0.4750000     0.4750000     0.4750000     0.4750000     0.4750000     0.4750000     0.4750000     0.4750000     0.4750000
     0.5250000     0.5250000     0.5250000     0.5250000     0.5250000     0.5250000     0.5250000     0.5250000     0.5250000     0.5250000     0.5250000     0.5250000     0.5250000     0.5250000     0.5250000     0.5250000     0.5250000     0.5250000     0.5250000     0.5250000     0.5750000     0.5750000     0.5750000     0.5750000     0.5750000     0.5750000     0.5750000     0.5750000     0.5750000     0.5750000     0.5750000     0.5750000     0.5750000     0.5750000     0.5750000     0.5750000     0.5750000     0.5750000     0.5750000     0.5750000     0.6250000     0.6250000     0.6250000     0.6250000     0.6250000     0.6250000     0.6250000     0.6250000     0.6250000     0.6250000     0.6250000     0.6250000     0.6250000     0.6250000     0.6250000     0.6250000     0.6250000     0.6250000     0.6250000     0.6250000     0.6750000     0.6750000     0.6750000     0.6750000     0.6750000     0.6750000     0.6750000     0.6750000     0.6750000     0.6750000     0.6750000     0.6750000     0.6750000     0.6750000     0.6750000     0.6750000     0.6750000     0.6750000     0.6750000     0.6750000     0.7250000     0.7250000     0.7250000     0.7250000     0.7250000     0.7250000     0.7250000     0.7250000     0.7250000     0.7250000     0.7250000     0.7250000     0.7250000     0.7250000     0.7250000     0.7250000     0.7250000     0.7250000     0.7250000     0.7250000
     0.7750000     0.7750000     0.7750000     0.7750000     0.7750000     0.7750000     0.7750000     0.7750000     0.7750000     0.7750000     0.7750000     0.7750000     0.7750000     0.7750000     0.7750000     0.7750000     0.7750000     0.7750000     0.7750000     0.7750000     0.8250000     0.8250000     0.8250000     0.8250000     0.8250000     0.8250000     0.8250000     0.8250000     0.8250000     0.8250000     0.8250000     0.8250000     0.8250000     0.8250000     0.8250000     0.8250000     0.8250000     0.8250000     0.8250000     0.8250000     0.8750000     0.8750000     0.8750000     0.8750000     0.8750000     0.8750000     0.8750000     0.8750000     0.8750000     0.8750000     0.8750000     0.8750000     0.8750000     0.8750000     0.8750000     0.8750000     0.8750000     0.8750000     0.8750000     0.8750000     0.9250000     0.9250000     0.9250000     0.9250000     0.9250000     0.9250000     0.9250000     0.9250000     0.9250000     0.9250000     0.9250000     0.9250000     0.9250000     0.9250000     0.9250000     0.9250000     0.9250000     0.9250000     0.9250000     0.9250000     0.9750000     0.9750000     0.9750000     0.9750000     0.9750000     0.9750000     0.9750000     0.9750000     0.9750000     0.9750000     0.9750000     0.9750000     0.9750000     0.9750000     0.9750000     0.9750000     0.9750000     0.9750000     0.9750000     0.9750000