 VARIABLES = "X", "Y", "P", "U", "V", "GradPX", "GradPY", "GradPX_res", "GradPY_res", "DivV", "DivV_res", "LapP", "LapP_res", "DivVP", "DivVP_res", "curlV", "curlV_res"
 ZONE I=          51 , J=          21 , DATAPACKING=BLOCK, VARLOCATION=([3-30]=CELLCENTERED)
     0.0000000     0.0171829     0.0360855     0.0568771     0.0797485     0.1049057     0.1325806     0.1630218     0.1965057     0.2333405     0.2738586     0.3184280     0.3674545     0.4213837     0.4807053     0.5459595     0.6177384     0.6966950     0.7835480     0.8790878     0.9841797     1.0997830     1.2269440     1.3668210     1.5206880     1.6899400     1.8761170     2.0809140     2.3061890     2.5539920     2.8265750     3.1264160     3.4562410     3.8190490     4.2181380     4.6571360     5.1400350     5.6712220     6.2555300     6.8982670     7.6052770     8.3829880     9.2384710    10.1795000    11.2146400    12.3532800    13.6058000    14.9835600    16.4991000    18.1662000    20.0000000     0.0000000     0.0171829     0.0360855     0.0568771     0.0797485     0.1049057     0.1325806     0.1630218     0.1965057     0.2333405     0.2738586     0.3184280     0.3674545     0.4213837     0.4807053     0.5459595     0.6177384     0.6966950     0.7835480     0.8790878     0.9841797     1.0997830     1.2269440     1.3668210     1.5206880     1.6899400     1.8761170     2.0809140     2.3061890     2.5539920     2.8265750     3.1264160     3.4562410     3.8190490     4.2181380     4.6571360     5.1400350     5.6712220     6.2555300     6.8982670     7.6052770     8.3829880     9.2384710    10.1795000    11.2146400    12.3532800    13.6058000    14.9835600    16.4991000
    18.1662000    20.0000000     0.0000000     0.0171829     0.0360855     0.0568771     0.0797485     0.1049057     0.1325806     0.1630218     0.1965057     0.2333405     0.2738586     0.3184280     0.3674545     0.4213837     0.4807053     0.5459595     0.6177384     0.6966950     0.7835480     0.8790878     0.9841797     1.0997830     1.2269440     1.3668210     1.5206880     1.6899400     1.8761170     2.0809140     2.3061890     2.5539920     2.8265750     3.1264160     3.4562410     3.8190490     4.2181380     4.6571360     5.1400350     5.6712220     6.2555300     6.8982670     7.6052770     8.3829880     9.2384710    10.1795000    11.2146400    12.3532800    13.6058000    14.9835600    16.4991000    18.1662000    20.0000000     0.0000000     0.0171829     0.0360855     0.0568771     0.0797485     0.1049057     0.1325806     0.1630218     0.1965057     0.2333405     0.2738586     0.3184280     0.3674545     0.4213837     0.4807053     0.5459595     0.6177384     0.6966950     0.7835480     0.8790878     0.9841797     1.0997830     1.2269440     1.3668210     1.5206880     1.6899400     1.8761170     2.0809140     2.3061890     2.5539920     2.8265750     3.1264160     3.4562410     3.8190490     4.2181380     4.6571360     5.1400350     5.6712220     6.2555300     6.8982670     7.6052770     8.3829880     9.2384710    10.1795000    11.2146400    12.3532800    13.6058000
    14.9835600    16.4991000    18.1662000    20.0000000     0.0000000     0.0171829     0.0360855     0.0568771     0.0797485     0.1049057     0.1325806     0.1630218     0.1965057     0.2333405     0.2738586     0.3184280     0.3674545     0.4213837     0.4807053     0.5459595     0.6177384     0.6966950     0.7835480     0.8790878     0.9841797     1.0997830     1.2269440     1.3668210     1.5206880     1.6899400     1.8761170     2.0809140     2.3061890     2.5539920     2.8265750     3.1264160     3.4562410     3.8190490     4.2181380     4.6571360     5.1400350     5.6712220     6.2555300     6.8982670     7.6052770     8.3829880     9.2384710    10.1795000    11.2146400    12.3532800    13.6058000    14.9835600    16.4991000    18.1662000    20.0000000     0.0000000     0.0171829     0.0360855     0.0568771     0.0797485     0.1049057     0.1325806     0.1630218     0.1965057     0.2333405     0.2738586     0.3184280     0.3674545     0.4213837     0.4807053     0.5459595     0.6177384     0.6966950     0.7835480     0.8790878     0.9841797     1.0997830     1.2269440     1.3668210     1.5206880     1.6899400     1.8761170     2.0809140     2.3061890     2.5539920     2.8265750     3.1264160     3.4562410     3.8190490     4.2181380     4.6571360     5.1400350     5.6712220     6.2555300     6.8982670     7.6052770     8.3829880     9.2384710    10.1795000    11.2146400
    12.3532800    13.6058000    14.9835600    16.4991000    18.1662000    20.0000000     0.0000000     0.0171829     0.0360855     0.0568771     0.0797485     0.1049057     0.1325806     0.1630218     0.1965057     0.2333405     0.2738586     0.3184280     0.3674545     0.4213837     0.4807053     0.5459595     0.6177384     0.6966950     0.7835480     0.8790878     0.9841797     1.0997830     1.2269440     1.3668210     1.5206880     1.6899400     1.8761170     2.0809140     2.3061890     2.5539920     2.8265750     3.1264160     3.4562410     3.8190490     4.2181380     4.6571360     5.1400350     5.6712220     6.2555300     6.8982670     7.6052770     8.3829880     9.2384710    10.1795000    11.2146400    12.3532800    13.6058000    14.9835600    16.4991000    18.1662000    20.0000000     0.0000000     0.0171829     0.0360855     0.0568771     0.0797485     0.1049057     0.1325806     0.1630218     0.1965057     0.2333405     0.2738586     0.3184280     0.3674545     0.4213837     0.4807053     0.5459595     0.6177384     0.6966950     0.7835480     0.8790878     0.9841797     1.0997830     1.2269440     1.3668210     1.5206880     1.6899400     1.8761170     2.0809140     2.3061890     2.5539920     2.8265750     3.1264160     3.4562410     3.8190490     4.2181380     4.6571360     5.1400350     5.6712220     6.2555300     6.8982670     7.6052770     8.3829880     9.2384710
    10.1795000    11.2146400    12.3532800    13.6058000    14.9835600    16.4991000    18.1662000    20.0000000     0.0000000     0.0171829     0.0360855     0.0568771     0.0797485     0.1049057     0.1325806     0.1630218     0.1965057     0.2333405     0.2738586     0.3184280     0.3674545     0.4213837     0.4807053     0.5459595     0.6177384     0.6966950     0.7835480     0.8790878     0.9841797     1.0997830     1.2269440     1.3668210     1.5206880     1.6899400     1.8761170     2.0809140     2.3061890     2.5539920     2.8265750     3.1264160     3.4562410     3.8190490     4.2181380     4.6571360     5.1400350     5.6712220     6.2555300     6.8982670     7.6052770     8.3829880     9.2384710    10.1795000    11.2146400    12.3532800    13.6058000    14.9835600    16.4991000    18.1662000    20.0000000     0.0000000     0.0171829     0.0360855     0.0568771     0.0797485     0.1049057     0.1325806     0.1630218     0.1965057     0.2333405     0.2738586     0.3184280     0.3674545     0.4213837     0.4807053     0.5459595     0.6177384     0.6966950     0.7835480     0.8790878     0.9841797     1.0997830     1.2269440     1.3668210     1.5206880     1.6899400     1.8761170     2.0809140     2.3061890     2.5539920     2.8265750     3.1264160     3.4562410     3.8190490     4.2181380     4.6571360     5.1400350     5.6712220     6.2555300     6.8982670     7.6052770
     8.3829880     9.2384710    10.1795000    11.2146400    12.3532800    13.6058000    14.9835600    16.4991000    18.1662000    20.0000000     0.0000000     0.0171829     0.0360855     0.0568771     0.0797485     0.1049057     0.1325806     0.1630218     0.1965057     0.2333405     0.2738586     0.3184280     0.3674545     0.4213837     0.4807053     0.5459595     0.6177384     0.6966950     0.7835480     0.8790878     0.9841797     1.0997830     1.2269440     1.3668210     1.5206880     1.6899400     1.8761170     2.0809140     2.3061890     2.5539920     2.8265750     3.1264160     3.4562410     3.8190490     4.2181380     4.6571360     5.1400350     5.6712220     6.2555300     6.8982670     7.6052770     8.3829880     9.2384710    10.1795000    11.2146400    12.3532800    13.6058000    14.9835600    16.4991000    18.1662000    20.0000000     0.0000000     0.0171829     0.0360855     0.0568771     0.0797485     0.1049057     0.1325806     0.1630218     0.1965057     0.2333405     0.2738586     0.3184280     0.3674545     0.4213837     0.4807053     0.5459595     0.6177384     0.6966950     0.7835480     0.8790878     0.9841797     1.0997830     1.2269440     1.3668210     1.5206880     1.6899400     1.8761170     2.0809140     2.3061890     2.5539920     2.8265750     3.1264160     3.4562410     3.8190490     4.2181380     4.6571360     5.1400350     5.6712220     6.2555300
     6.8982670     7.6052770     8.3829880     9.2384710    10.1795000    11.2146400    12.3532800    13.6058000    14.9835600    16.4991000    18.1662000    20.0000000     0.0000000     0.0171829     0.0360855     0.0568771     0.0797485     0.1049057     0.1325806     0.1630218     0.1965057     0.2333405     0.2738586     0.3184280     0.3674545     0.4213837     0.4807053     0.5459595     0.6177384     0.6966950     0.7835480     0.8790878     0.9841797     1.0997830     1.2269440     1.3668210     1.5206880     1.6899400     1.8761170     2.0809140     2.3061890     2.5539920     2.8265750     3.1264160     3.4562410     3.8190490     4.2181380     4.6571360     5.1400350     5.6712220     6.2555300     6.8982670     7.6052770     8.3829880     9.2384710    10.1795000    11.2146400    12.3532800    13.6058000    14.9835600    16.4991000    18.1662000    20.0000000     0.0000000     0.0171829     0.0360855     0.0568771     0.0797485     0.1049057     0.1325806     0.1630218     0.1965057     0.2333405     0.2738586     0.3184280     0.3674545     0.4213837     0.4807053     0.5459595     0.6177384     0.6966950     0.7835480     0.8790878     0.9841797     1.0997830     1.2269440     1.3668210     1.5206880     1.6899400     1.8761170     2.0809140     2.3061890     2.5539920     2.8265750     3.1264160     3.4562410     3.8190490     4.2181380     4.6571360     5.1400350
     5.6712220     6.2555300     6.8982670     7.6052770     8.3829880     9.2384710    10.1795000    11.2146400    12.3532800    13.6058000    14.9835600    16.4991000    18.1662000    20.0000000     0.0000000     0.0171829     0.0360855     0.0568771     0.0797485     0.1049057     0.1325806     0.1630218     0.1965057     0.2333405     0.2738586     0.3184280     0.3674545     0.4213837     0.4807053     0.5459595     0.6177384     0.6966950     0.7835480     0.8790878     0.9841797     1.0997830     1.2269440     1.3668210     1.5206880     1.6899400     1.8761170     2.0809140     2.3061890     2.5539920     2.8265750     3.1264160     3.4562410     3.8190490     4.2181380     4.6571360     5.1400350     5.6712220     6.2555300     6.8982670     7.6052770     8.3829880     9.2384710    10.1795000    11.2146400    12.3532800    13.6058000    14.9835600    16.4991000    18.1662000    20.0000000     0.0000000     0.0171829     0.0360855     0.0568771     0.0797485     0.1049057     0.1325806     0.1630218     0.1965057     0.2333405     0.2738586     0.3184280     0.3674545     0.4213837     0.4807053     0.5459595     0.6177384     0.6966950     0.7835480     0.8790878     0.9841797     1.0997830     1.2269440     1.3668210     1.5206880     1.6899400     1.8761170     2.0809140     2.3061890     2.5539920     2.8265750     3.1264160     3.4562410     3.8190490     4.2181380
     4.6571360     5.1400350     5.6712220     6.2555300     6.8982670     7.6052770     8.3829880     9.2384710    10.1795000    11.2146400    12.3532800    13.6058000    14.9835600    16.4991000    18.1662000    20.0000000     0.0000000     0.0171829     0.0360855     0.0568771     0.0797485     0.1049057     0.1325806     0.1630218     0.1965057     0.2333405     0.2738586     0.3184280     0.3674545     0.4213837     0.4807053     0.5459595     0.6177384     0.6966950     0.7835480     0.8790878     0.9841797     1.0997830     1.2269440     1.3668210     1.5206880     1.6899400     1.8761170     2.0809140     2.3061890     2.5539920     2.8265750     3.1264160     3.4562410     3.8190490     4.2181380     4.6571360     5.1400350     5.6712220     6.2555300     6.8982670     7.6052770     8.3829880     9.2384710    10.1795000    11.2146400    12.3532800    13.6058000    14.9835600    16.4991000    18.1662000    20.0000000     0.0000000     0.0171829     0.0360855     0.0568771     0.0797485     0.1049057     0.1325806     0.1630218     0.1965057     0.2333405     0.2738586     0.3184280     0.3674545     0.4213837     0.4807053     0.5459595     0.6177384     0.6966950     0.7835480     0.8790878     0.9841797     1.0997830     1.2269440     1.3668210     1.5206880     1.6899400     1.8761170     2.0809140     2.3061890     2.5539920     2.8265750     3.1264160     3.4562410
     3.8190490     4.2181380     4.6571360     5.1400350     5.6712220     6.2555300     6.8982670     7.6052770     8.3829880     9.2384710    10.1795000    11.2146400    12.3532800    13.6058000    14.9835600    16.4991000    18.1662000    20.0000000     0.0000000     0.0171829     0.0360855     0.0568771     0.0797485     0.1049057     0.1325806     0.1630218     0.1965057     0.2333405     0.2738586     0.3184280     0.3674545     0.4213837     0.4807053     0.5459595     0.6177384     0.6966950     0.7835480     0.8790878     0.9841797     1.0997830     1.2269440     1.3668210     1.5206880     1.6899400     1.8761170     2.0809140     2.3061890     2.5539920     2.8265750     3.1264160     3.4562410     3.8190490     4.2181380     4.6571360     5.1400350     5.6712220     6.2555300     6.8982670     7.6052770     8.3829880     9.2384710    10.1795000    11.2146400    12.3532800    13.6058000    14.9835600    16.4991000    18.1662000    20.0000000     0.0000000     0.0171829     0.0360855     0.0568771     0.0797485     0.1049057     0.1325806     0.1630218     0.1965057     0.2333405     0.2738586     0.3184280     0.3674545     0.4213837     0.4807053     0.5459595     0.6177384     0.6966950     0.7835480     0.8790878     0.9841797     1.0997830     1.2269440     1.3668210     1.5206880     1.6899400     1.8761170     2.0809140     2.3061890     2.5539920     2.8265750
     3.1264160     3.4562410     3.8190490     4.2181380     4.6571360     5.1400350     5.6712220     6.2555300     6.8982670     7.6052770     8.3829880     9.2384710    10.1795000    11.2146400    12.3532800    13.6058000    14.9835600    16.4991000    18.1662000    20.0000000     0.0000000     0.0171829     0.0360855     0.0568771     0.0797485     0.1049057     0.1325806     0.1630218     0.1965057     0.2333405     0.2738586     0.3184280     0.3674545     0.4213837     0.4807053     0.5459595     0.6177384     0.6966950     0.7835480     0.8790878     0.9841797     1.0997830     1.2269440     1.3668210     1.5206880     1.6899400     1.8761170     2.0809140     2.3061890     2.5539920     2.8265750     3.1264160     3.4562410     3.8190490     4.2181380     4.6571360     5.1400350     5.6712220     6.2555300     6.8982670     7.6052770     8.3829880     9.2384710    10.1795000    11.2146400    12.3532800    13.6058000    14.9835600    16.4991000    18.1662000    20.0000000
     0.0000000     0.0000000     0.0000000     0.0000000     0.0000000     0.0000000     0.0000000     0.0000000     0.0000000     0.0000000     0.0000000     0.0000000     0.0000000     0.0000000     0.0000000     0.0000000     0.0000000     0.0000000     0.0000000     0.0000000     0.0000000     0.0000000     0.0000000     0.0000000     0.0000000     0.0000000     0.0000000     0.0000000     0.0000000     0.0000000     0.0000000     0.0000000     0.0000000     0.0000000     0.0000000     0.0000000     0.0000000     0.0000000     0.0000000     0.0000000     0.0000000     0.0000000     0.0000000     0.0000000     0.0000000     0.0000000     0.0000000     0.0000000     0.0000000     0.0000000     0.0000000     0.0313727     0.0313727     0.0313727     0.0313727     0.0313727     0.0313727     0.0313727     0.0313727     0.0313727     0.0313727     0.0313727     0.0313727     0.0313727     0.0313727     0.0313727     0.0313727     0.0313727     0.0313727     0.0313727     0.0313727     0.0313727     0.0313727     0.0313727     0.0313727     0.0313727     0.0313727     0.0313727     0.0313727     0.0313727     0.0313727     0.0313727     0.0313727     0.0313727     0.0313727     0.0313727     0.0313727     0.0313727     0.0313727     0.0313727     0.0313727     0.0313727     0.0313727     0.0313727     0.0313727     0.0313727     0.0313727     0.0313727     0.0313727     0.0313727
     0.0313727     0.0313727     0.0658826     0.0658826     0.0658826     0.0658826     0.0658826     0.0658826     0.0658826     0.0658826     0.0658826     0.0658826     0.0658826     0.0658826     0.0658826     0.0658826     0.0658826     0.0658826     0.0658826     0.0658826     0.0658826     0.0658826     0.0658826     0.0658826     0.0658826     0.0658826     0.0658826     0.0658826     0.0658826     0.0658826     0.0658826     0.0658826     0.0658826     0.0658826     0.0658826     0.0658826     0.0658826     0.0658826     0.0658826     0.0658826     0.0658826     0.0658826     0.0658826     0.0658826     0.0658826     0.0658826     0.0658826     0.0658826     0.0658826     0.0658826     0.0658826     0.0658826     0.0658826     0.1038436     0.1038436     0.1038436     0.1038436     0.1038436     0.1038436     0.1038436     0.1038436     0.1038436     0.1038436     0.1038436     0.1038436     0.1038436     0.1038436     0.1038436     0.1038436     0.1038436     0.1038436     0.1038436     0.1038436     0.1038436     0.1038436     0.1038436     0.1038436     0.1038436     0.1038436     0.1038436     0.1038436     0.1038436     0.1038436     0.1038436     0.1038436     0.1038436     0.1038436     0.1038436     0.1038436     0.1038436     0.1038436     0.1038436     0.1038436     0.1038436     0.1038436     0.1038436     0.1038436     0.1038436     0.1038436     0.1038436
     0.1038436     0.1038436     0.1038436     0.1038436     0.1456006     0.1456006     0.1456006     0.1456006     0.1456006     0.1456006     0.1456006     0.1456006     0.1456006     0.1456006     0.1456006     0.1456006     0.1456006     0.1456006     0.1456006     0.1456006     0.1456006     0.1456006     0.1456006     0.1456006     0.1456006     0.1456006     0.1456006     0.1456006     0.1456006     0.1456006     0.1456006     0.1456006     0.1456006     0.1456006     0.1456006     0.1456006     0.1456006     0.1456006     0.1456006     0.1456006     0.1456006     0.1456006     0.1456006     0.1456006     0.1456006     0.1456006     0.1456006     0.1456006     0.1456006     0.1456006     0.1456006     0.1456006     0.1456006     0.1456006     0.1456006     0.1915334     0.1915334     0.1915334     0.1915334     0.1915334     0.1915334     0.1915334     0.1915334     0.1915334     0.1915334     0.1915334     0.1915334     0.1915334     0.1915334     0.1915334     0.1915334     0.1915334     0.1915334     0.1915334     0.1915334     0.1915334     0.1915334     0.1915334     0.1915334     0.1915334     0.1915334     0.1915334     0.1915334     0.1915334     0.1915334     0.1915334     0.1915334     0.1915334     0.1915334     0.1915334     0.1915334     0.1915334     0.1915334     0.1915334     0.1915334     0.1915334     0.1915334     0.1915334     0.1915334     0.1915334
     0.1915334     0.1915334     0.1915334     0.1915334     0.1915334     0.1915334     0.2420594     0.2420594     0.2420594     0.2420594     0.2420594     0.2420594     0.2420594     0.2420594     0.2420594     0.2420594     0.2420594     0.2420594     0.2420594     0.2420594     0.2420594     0.2420594     0.2420594     0.2420594     0.2420594     0.2420594     0.2420594     0.2420594     0.2420594     0.2420594     0.2420594     0.2420594     0.2420594     0.2420594     0.2420594     0.2420594     0.2420594     0.2420594     0.2420594     0.2420594     0.2420594     0.2420594     0.2420594     0.2420594     0.2420594     0.2420594     0.2420594     0.2420594     0.2420594     0.2420594     0.2420594     0.2420594     0.2420594     0.2420594     0.2420594     0.2420594     0.2420594     0.2976381     0.2976381     0.2976381     0.2976381     0.2976381     0.2976381     0.2976381     0.2976381     0.2976381     0.2976381     0.2976381     0.2976381     0.2976381     0.2976381     0.2976381     0.2976381     0.2976381     0.2976381     0.2976381     0.2976381     0.2976381     0.2976381     0.2976381     0.2976381     0.2976381     0.2976381     0.2976381     0.2976381     0.2976381     0.2976381     0.2976381     0.2976381     0.2976381     0.2976381     0.2976381     0.2976381     0.2976381     0.2976381     0.2976381     0.2976381     0.2976381     0.2976381     0.2976381
     0.2976381     0.2976381     0.2976381     0.2976381     0.2976381     0.2976381     0.2976381     0.2976381     0.3587745     0.3587745     0.3587745     0.3587745     0.3587745     0.3587745     0.3587745     0.3587745     0.3587745     0.3587745     0.3587745     0.3587745     0.3587745     0.3587745     0.3587745     0.3587745     0.3587745     0.3587745     0.3587745     0.3587745     0.3587745     0.3587745     0.3587745     0.3587745     0.3587745     0.3587745     0.3587745     0.3587745     0.3587745     0.3587745     0.3587745     0.3587745     0.3587745     0.3587745     0.3587745     0.3587745     0.3587745     0.3587745     0.3587745     0.3587745     0.3587745     0.3587745     0.3587745     0.3587745     0.3587745     0.3587745     0.3587745     0.3587745     0.3587745     0.3587745     0.3587745     0.4260247     0.4260247     0.4260247     0.4260247     0.4260247     0.4260247     0.4260247     0.4260247     0.4260247     0.4260247     0.4260247     0.4260247     0.4260247     0.4260247     0.4260247     0.4260247     0.4260247     0.4260247     0.4260247     0.4260247     0.4260247     0.4260247     0.4260247     0.4260247     0.4260247     0.4260247     0.4260247     0.4260247     0.4260247     0.4260247     0.4260247     0.4260247     0.4260247     0.4260247     0.4260247     0.4260247     0.4260247     0.4260247     0.4260247     0.4260247     0.4260247
     0.4260247     0.4260247     0.4260247     0.4260247     0.4260247     0.4260247     0.4260247     0.4260247     0.4260247     0.4260247     0.5000000     0.5000000     0.5000000     0.5000000     0.5000000     0.5000000     0.5000000     0.5000000     0.5000000     0.5000000     0.5000000     0.5000000     0.5000000     0.5000000     0.5000000     0.5000000     0.5000000     0.5000000     0.5000000     0.5000000     0.5000000     0.5000000     0.5000000     0.5000000     0.5000000     0.5000000     0.5000000     0.5000000     0.5000000     0.5000000     0.5000000     0.5000000     0.5000000     0.5000000     0.5000000     0.5000000     0.5000000     0.5000000     0.5000000     0.5000000     0.5000000     0.5000000     0.5000000     0.5000000     0.5000000     0.5000000     0.5000000     0.5000000     0.5000000     0.5000000     0.5000000     0.5739753     0.5739753     0.5739753     0.5739753     0.5739753     0.5739753     0.5739753     0.5739753     0.5739753     0.5739753     0.5739753     0.5739753     0.5739753     0.5739753     0.5739753     0.5739753     0.5739753     0.5739753     0.5739753     0.5739753     0.5739753     0.5739753     0.5739753     0.5739753     0.5739753     0.5739753     0.5739753     0.5739753     0.5739753     0.5739753     0.5739753     0.5739753     0.5739753     0.5739753     0.5739753     0.5739753     0.5739753     0.5739753     0.5739753
     0.5739753     0.5739753     0.5739753     0.5739753     0.5739753     0.5739753     0.5739753     0.5739753     0.5739753     0.5739753     0.5739753     0.5739753     0.6412255     0.6412255     0.6412255     0.6412255     0.6412255     0.6412255     0.6412255     0.6412255     0.6412255     0.6412255     0.6412255     0.6412255     0.6412255     0.6412255     0.6412255     0.6412255     0.6412255     0.6412255     0.6412255     0.6412255     0.6412255     0.6412255     0.6412255     0.6412255     0.6412255     0.6412255     0.6412255     0.6412255     0.6412255     0.6412255     0.6412255     0.6412255     0.6412255     0.6412255     0.6412255     0.6412255     0.6412255     0.6412255     0.6412255     0.6412255     0.6412255     0.6412255     0.6412255     0.6412255     0.6412255     0.6412255     0.6412255     0.6412255     0.6412255     0.6412255     0.6412255     0.7023619     0.7023619     0.7023619     0.7023619     0.7023619     0.7023619     0.7023619     0.7023619     0.7023619     0.7023619     0.7023619     0.7023619     0.7023619     0.7023619     0.7023619     0.7023619     0.7023619     0.7023619     0.7023619     0.7023619     0.7023619     0.7023619     0.7023619     0.7023619     0.7023619     0.7023619     0.7023619     0.7023619     0.7023619     0.7023619     0.7023619     0.7023619     0.7023619     0.7023619     0.7023619     0.7023619     0.7023619
     0.7023619     0.7023619     0.7023619     0.7023619     0.7023619     0.7023619     0.7023619     0.7023619     0.7023619     0.7023619     0.7023619     0.7023619     0.7023619     0.7023619     0.7579406     0.7579406     0.7579406     0.7579406     0.7579406     0.7579406     0.7579406     0.7579406     0.7579406     0.7579406     0.7579406     0.7579406     0.7579406     0.7579406     0.7579406     0.7579406     0.7579406     0.7579406     0.7579406     0.7579406     0.7579406     0.7579406     0.7579406     0.7579406     0.7579406     0.7579406     0.7579406     0.7579406     0.7579406     0.7579406     0.7579406     0.7579406     0.7579406     0.7579406     0.7579406     0.7579406     0.7579406     0.7579406     0.7579406     0.7579406     0.7579406     0.7579406     0.7579406     0.7579406     0.7579406     0.7579406     0.7579406     0.7579406     0.7579406     0.7579406     0.7579406     0.8084666     0.8084666     0.8084666     0.8084666     0.8084666     0.8084666     0.8084666     0.8084666     0.8084666     0.8084666     0.8084666     0.8084666     0.8084666     0.8084666     0.8084666     0.8084666     0.8084666     0.8084666     0.8084666     0.8084666     0.8084666     0.8084666     0.8084666     0.8084666     0.8084666     0.8084666     0.8084666     0.8084666     0.8084666     0.8084666     0.8084666     0.8084666     0.8084666     0.8084666     0.8084666
     0.8084666     0.8084666     0.8084666     0.8084666     0.8084666     0.8084666     0.8084666     0.8084666     0.8084666     0.8084666     0.8084666     0.8084666     0.8084666     0.8084666     0.8084666     0.8084666     0.8543994     0.8543994     0.8543994     0.8543994     0.8543994     0.8543994     0.8543994     0.8543994     0.8543994     0.8543994     0.8543994     0.8543994     0.8543994     0.8543994     0.8543994     0.8543994     0.8543994     0.8543994     0.8543994     0.8543994     0.8543994     0.8543994     0.8543994     0.8543994     0.8543994     0.8543994     0.8543994     0.8543994     0.8543994     0.8543994     0.8543994     0.8543994     0.8543994     0.8543994     0.8543994     0.8543994     0.8543994     0.8543994     0.8543994     0.8543994     0.8543994     0.8543994     0.8543994     0.8543994     0.8543994     0.8543994     0.8543994     0.8543994     0.8543994     0.8543994     0.8543994     0.8961564     0.8961564     0.8961564     0.8961564     0.8961564     0.8961564     0.8961564     0.8961564     0.8961564     0.8961564     0.8961564     0.8961564     0.8961564     0.8961564     0.8961564     0.8961564     0.8961564     0.8961564     0.8961564     0.8961564     0.8961564     0.8961564     0.8961564     0.8961564     0.8961564     0.8961564     0.8961564     0.8961564     0.8961564     0.8961564     0.8961564     0.8961564     0.8961564
     0.8961564     0.8961564     0.8961564     0.8961564     0.8961564     0.8961564     0.8961564     0.8961564     0.8961564     0.8961564     0.8961564     0.8961564     0.8961564     0.8961564     0.8961564     0.8961564     0.8961564     0.8961564     0.9341174     0.9341174     0.9341174     0.9341174     0.9341174     0.9341174     0.9341174     0.9341174     0.9341174     0.9341174     0.9341174     0.9341174     0.9341174     0.9341174     0.9341174     0.9341174     0.9341174     0.9341174     0.9341174     0.9341174     0.9341174     0.9341174     0.9341174     0.9341174     0.9341174     0.9341174     0.9341174     0.9341174     0.9341174     0.9341174     0.9341174     0.9341174     0.9341174     0.9341174     0.9341174     0.9341174     0.9341174     0.9341174     0.9341174     0.9341174     0.9341174     0.9341174     0.9341174     0.9341174     0.9341174     0.9341174     0.9341174     0.9341174     0.9341174     0.9341174     0.9341174     0.9686273     0.9686273     0.9686273     0.9686273     0.9686273     0.9686273     0.9686273     0.9686273     0.9686273     0.9686273     0.9686273     0.9686273     0.9686273     0.9686273     0.9686273     0.9686273     0.9686273     0.9686273     0.9686273     0.9686273     0.9686273     0.9686273     0.9686273     0.9686273     0.9686273     0.9686273     0.9686273     0.9686273     0.9686273     0.9686273     0.9686273