Variables = "x","y", "Velocity_x", "Velocity_y", "Velocity_whole value", "Pressure", "Absolute pressure", "Total pressure"
Zone i=52, j=22
 0.0000000e+000  0.0000000e+000  0.0000000e+000  0.0000000e+000  0.0000000e+000  4.3553600e+000  4.3553600e+000  4.3553600e+000 
 8.5914601e-003  0.0000000e+000  0.0000000e+000  0.0000000e+000  0.0000000e+000  4.1118350e+000  4.1118350e+000  4.1118350e+000 
 2.6634214e-002  0.0000000e+000  0.0000000e+000  0.0000000e+000  0.0000000e+000  3.6004133e+000  3.6004133e+000  3.6004133e+000 
 4.6481326e-002  0.0000000e+000  0.0000000e+000  0.0000000e+000  0.0000000e+000  3.2319152e+000  3.2319152e+000  3.2319152e+000 
 6.8312839e-002  0.0000000e+000  0.0000000e+000  0.0000000e+000  0.0000000e+000  2.9800425e+000  2.9800425e+000  2.9800425e+000 
 9.2327118e-002  0.0000000e+000  0.0000000e+000  0.0000000e+000  0.0000000e+000  2.8074436e+000  2.8074436e+000  2.8074436e+000 
 1.1874315e-001  0.0000000e+000  0.0000000e+000  0.0000000e+000  0.0000000e+000  2.6983292e+000  2.6983292e+000  2.6983292e+000 
 1.4780119e-001  0.0000000e+000  0.0000000e+000  0.0000000e+000  0.0000000e+000  2.6358562e+000  2.6358562e+000  2.6358562e+000 
 1.7976375e-001  0.0000000e+000  0.0000000e+000  0.0000000e+000  0.0000000e+000  2.6014428e+000  2.6014428e+000  2.6014428e+000 
 2.1492310e-001  0.0000000e+000  0.0000000e+000  0.0000000e+000  0.0000000e+000  2.5805733e+000  2.5805733e+000  2.5805733e+000 
 2.5359955e-001  0.0000000e+000  0.0000000e+000  0.0000000e+000  0.0000000e+000  2.5646999e+000  2.5646999e+000  2.5646999e+000 
 2.9614329e-001  0.0000000e+000  0.0000000e+000  0.0000000e+000  0.0000000e+000  2.5500133e+000  2.5500133e+000  2.5500133e+000 
 3.4294125e-001  0.0000000e+000  0.0000000e+000  0.0000000e+000  0.0000000e+000  2.5353169e+000  2.5353169e+000  2.5353169e+000 
 3.9441910e-001  0.0000000e+000  0.0000000e+000  0.0000000e+000  0.0000000e+000  2.5203719e+000  2.5203719e+000  2.5203719e+000 
 4.5104450e-001  0.0000000e+000  0.0000000e+000  0.0000000e+000  0.0000000e+000  2.5050986e+000  2.5050986e+000  2.5050986e+000 
 5.1333237e-001  0.0000000e+000  0.0000000e+000  0.0000000e+000  0.0000000e+000  2.4893601e+000  2.4893601e+000  2.4893601e+000 
 5.8184898e-001  0.0000000e+000  0.0000000e+000  0.0000000e+000  0.0000000e+000  2.4729736e+000  2.4729736e+000  2.4729736e+000 
 6.5721673e-001  0.0000000e+000  0.0000000e+000  0.0000000e+000  0.0000000e+000  2.4557469e+000  2.4557469e+000  2.4557469e+000 
 7.4012148e-001  0.0000000e+000  0.0000000e+000  0.0000000e+000  0.0000000e+000  2.4375050e+000  2.4375050e+000  2.4375050e+000 
 8.3131790e-001  0.0000000e+000  0.0000000e+000  0.0000000e+000  0.0000000e+000  2.4180968e+000  2.4180968e+000  2.4180968e+000 
 9.3163371e-001  0.0000000e+000  0.0000000e+000  0.0000000e+000  0.0000000e+000  2.3974006e+000  2.3974006e+000  2.3974006e+000 
 1.0419813e+000  0.0000000e+000  0.0000000e+000  0.0000000e+000  0.0000000e+000  2.3753204e+000  2.3753204e+000  2.3753204e+000 
 1.1633635e+000  0.0000000e+000  0.0000000e+000  0.0000000e+000  0.0000000e+000  2.3517809e+000  2.3517809e+000  2.3517809e+000 
 1.2968825e+000  0.0000000e+000  0.0000000e+000  0.0000000e+000  0.0000000e+000  2.3267195e+000  2.3267195e+000  2.3267195e+000 
 1.4437546e+000  0.0000000e+000  0.0000000e+000  0.0000000e+000  0.0000000e+000  2.3000772e+000  2.3000772e+000  2.3000772e+000 
 1.6053140e+000  0.0000000e+000  0.0000000e+000  0.0000000e+000  0.0000000e+000  2.2717886e+000  2.2717886e+000  2.2717886e+000 
 1.7830285e+000  0.0000000e+000  0.0000000e+000  0.0000000e+000  0.0000000e+000  2.2417765e+000  2.2417765e+000  2.2417765e+000 
 1.9785155e+000  0.0000000e+000  0.0000000e+000  0.0000000e+000  0.0000000e+000  2.2099445e+000  2.2099445e+000  2.2099445e+000 
 2.1935515e+000  0.0000000e+000  0.0000000e+000  0.0000000e+000  0.0000000e+000  2.1761746e+000  2.1761746e+000  2.1761746e+000 
 2.4300904e+000  0.0000000e+000  0.0000000e+000  0.0000000e+000  0.0000000e+000  2.1403229e+000  2.1403229e+000  2.1403229e+000 
 2.6902835e+000  0.0000000e+000  0.0000000e+000  0.0000000e+000  0.0000000e+000  2.1022141e+000  2.1022141e+000  2.1022141e+000 
 2.9764955e+000  0.0000000e+000  0.0000000e+000  0.0000000e+000  0.0000000e+000  2.0616355e+000  2.0616355e+000  2.0616355e+000 
 3.2913284e+000  0.0000000e+000  0.0000000e+000  0.0000000e+000  0.0000000e+000  2.0183315e+000  2.0183315e+000  2.0183315e+000 
 3.6376448e+000  0.0000000e+000  0.0000000e+000  0.0000000e+000  0.0000000e+000  1.9719949e+000  1.9719949e+000  1.9719949e+000 
 4.0185938e+000  0.0000000e+000  0.0000000e+000  0.0000000e+000  0.0000000e+000  1.9222618e+000  1.9222618e+000  1.9222618e+000 
 4.4376373e+000  0.0000000e+000  0.0000000e+000  0.0000000e+000  0.0000000e+000  1.8687052e+000  1.8687052e+000  1.8687052e+000 
 4.8985853e+000  0.0000000e+000  0.0000000e+000  0.0000000e+000  0.0000000e+000  1.8108308e+000  1.8108308e+000  1.8108308e+000 
 5.4056287e+000  0.0000000e+000  0.0000000e+000  0.0000000e+000  0.0000000e+000  1.7480767e+000  1.7480767e+000  1.7480767e+000 
 5.9633760e+000  0.0000000e+000  0.0000000e+000  0.0000000e+000  0.0000000e+000  1.6798143e+000  1.6798143e+000  1.6798143e+000 
 6.5768986e+000  0.0000000e+000  0.0000000e+000  0.0000000e+000  0.0000000e+000  1.6053491e+000  1.6053491e+000  1.6053491e+000 
 7.2517719e+000  0.0000000e+000  0.0000000e+000  0.0000000e+000  0.0000000e+000  1.5239230e+000  1.5239230e+000  1.5239230e+000 
 7.9941325e+000  0.0000000e+000  0.0000000e+000  0.0000000e+000  0.0000000e+000  1.4347166e+000  1.4347166e+000  1.4347166e+000 
 8.8107300e+000  0.0000000e+000  0.0000000e+000  0.0000000e+000  0.0000000e+000  1.3368458e+000  1.3368458e+000  1.3368458e+000 
 9.7089853e+000  0.0000000e+000  0.0000000e+000  0.0000000e+000  0.0000000e+000  1.2293600e+000  1.2293600e+000  1.2293600e+000 
 1.0697069e+001  0.0000000e+000  0.0000000e+000  0.0000000e+000  0.0000000e+000  1.1112339e+000  1.1112339e+000  1.1112339e+000 
 1.1783960e+001  0.0000000e+000  0.0000000e+000  0.0000000e+000  0.0000000e+000  9.8136020e-001  9.8136020e-001  9.8136020e-001 
 1.2979540e+001  0.0000000e+000  0.0000000e+000  0.0000000e+000  0.0000000e+000  8.3853441e-001  8.3853441e-001  8.3853441e-001 
 1.4294680e+001  0.0000000e+000  0.0000000e+000  0.0000000e+000  0.0000000e+000  6.8144459e-001  6.8144459e-001  6.8144459e-001 
 1.5741329e+001  0.0000000e+000  0.0000000e+000  0.0000000e+000  0.0000000e+000  5.0865418e-001  5.0865418e-001  5.0865418e-001 
 1.7332649e+001  0.0000000e+000  0.0000000e+000  0.0000000e+000  0.0000000e+000  3.1858659e-001  3.1858659e-001  3.1858659e-001 
 1.9083099e+001  0.0000000e+000  0.0000000e+000  0.0000000e+000  0.0000000e+000  1.0951336e-001  1.0951336e-001  1.0951336e-001 
 2.0000000e+001  0.0000000e+000  0.0000000e+000  0.0000000e+000  0.0000000e+000 -8.4986817e-007 -8.4986817e-007 -8.4986817e-007 
 0.0000000e+000  1.5686335e-002  1.0000000e+000  0.0000000e+000  1.0000000e+000  3.9797432e+000  3.9797432e+000  4.4797430e+000 
 8.5914601e-003  1.5686335e-002  9.6209323e-001  1.7000368e-001  9.7699779e-001  3.8026381e+000  3.8026381e+000  4.2799006e+000 
 2.6634214e-002  1.5686335e-002  8.5697943e-001  1.9238257e-001  8.7830794e-001  3.4307029e+000  3.4307029e+000  3.8164153e+000 
 4.6481326e-002  1.5686335e-002  7.2264850e-001  1.4975648e-001  7.3800260e-001  3.1513429e+000  3.1513429e+000  3.4236667e+000 
 6.8312839e-002  1.5686335e-002  5.9048951e-001  1.0015737e-001  5.9892350e-001  2.9510806e+000  2.9510806e+000  3.1304352e+000 
 9.2327118e-002  1.5686335e-002  4.7887689e-001  5.9455168e-002  4.8255360e-001  2.8078635e+000  2.8078635e+000  2.9242926e+000 
 1.1874315e-001  1.5686335e-002  3.9200148e-001  3.1154195e-002  3.9323750e-001  2.7123713e+000  2.7123713e+000  2.7896893e+000 
 1.4780119e-001  1.5686335e-002  3.2807469e-001  1.4249463e-002  3.2838401e-001  2.6532192e+000  2.6532192e+000  2.7071373e+000 
 1.7976375e-001  1.5686335e-002  2.8251258e-001  5.6631803e-003  2.8256932e-001  2.6169527e+000  2.6169527e+000  2.6568754e+000 
 2.1492310e-001  1.5686335e-002  2.4982841e-001  2.0485325e-003  2.4983682e-001  2.5926092e+000  2.5926092e+000  2.6238184e+000 
 2.5359955e-001  1.5686335e-002  2.2536218e-001  8.4674120e-004  2.2536378e-001  2.5734532e+000  2.5734532e+000  2.5988476e+000 
 2.9614329e-001  1.5686335e-002  2.0601818e-001  5.4919260e-004  2.0601891e-001  2.5562613e+000  2.5562613e+000  2.5774832e+000 
 3.4294125e-001  1.5686335e-002  1.9007955e-001  4.7935836e-004  1.9008017e-001  2.5398107e+000  2.5398107e+000  2.5578759e+000 
 3.9441910e-001  1.5686335e-002  1.7667437e-001  4.2749284e-004  1.7667489e-001  2.5236592e+000  2.5236592e+000  2.5392663e+000 
 4.5104450e-001  1.5686335e-002  1.6532136e-001  3.6434198e-004  1.6532177e-001  2.5075414e+000  2.5075414e+000  2.5212071e+000 
 5.1333237e-001  1.5686335e-002  1.5568811e-001  3.0055176e-004  1.5568839e-001  2.4911966e+000  2.4911966e+000  2.5033162e+000 
 5.8184898e-001  1.5686335e-002  1.4750268e-001  2.4474124e-004  1.4750288e-001  2.4743655e+000  2.4743655e+000  2.4852440e+000 
 6.5721673e-001  1.5686335e-002  1.4053059e-001  1.9894230e-004  1.4053072e-001  2.4568090e+000  2.4568090e+000  2.4666834e+000 
 7.4012148e-001  1.5686335e-002  1.3456787e-001  1.6277980e-004  1.3456798e-001  2.4383209e+000  2.4383209e+000  2.4473751e+000 
 8.3131790e-001  1.5686335e-002  1.2943670e-001  1.3460078e-004  1.2943678e-001  2.4187284e+000  2.4187284e+000  2.4271052e+000 
 9.3163371e-001  1.5686335e-002  1.2498415e-001  1.1271437e-004  1.2498420e-001  2.3978941e+000  2.3978941e+000  2.4057047e+000 
 1.0419813e+000  1.5686335e-002  1.2108124e-001  9.5383897e-005  1.2108128e-001  2.3757102e+000  2.3757102e+000  2.3830407e+000 
 1.1633635e+000  1.5686335e-002  1.1762252e-001  8.1493759e-005  1.1762255e-001  2.3520923e+000  2.3520923e+000  2.3590097e+000 
 1.2968825e+000  1.5686335e-002  1.1452539e-001  6.9883215e-005  1.1452541e-001  2.3269711e+000  2.3269711e+000  2.3335290e+000 
 1.4437546e+000  1.5686335e-002  1.1172754e-001  5.9996510e-005  1.1172755e-001  2.3002820e+000  2.3002820e+000  2.3065236e+000 
 1.6053140e+000  1.5686335e-002  1.0918488e-001  5.1397714e-005  1.0918490e-001  2.2719564e+000  2.2719564e+000  2.2779171e+000 
 1.7830285e+000  1.5686335e-002  1.0686678e-001  4.3802032e-005  1.0686678e-001  2.2419145e+000  2.2419145e+000  2.2476249e+000 
 1.9785155e+000  1.5686335e-002  1.0475323e-001  3.7182916e-005  1.0475324e-001  2.2100580e+000  2.2100580e+000  2.2155447e+000 
 2.1935515e+000  1.5686335e-002  1.0283113e-001  3.1143438e-005  1.0283113e-001  2.1762679e+000  2.1762679e+000  2.1815550e+000 
 2.4300904e+000  1.5686335e-002  1.0109256e-001  2.5856325e-005  1.0109256e-001  2.1403990e+000  2.1403990e+000  2.1455088e+000 
 2.6902835e+000  1.5686335e-002  9.9532567e-002  2.1219026e-005  9.9532567e-002  2.1022756e+000  2.1022756e+000  2.1072290e+000 
 2.9764955e+000  1.5686335e-002  9.8147981e-002  1.7232422e-005  9.8147981e-002  2.0616846e+000  2.0616846e+000  2.0665011e+000 
 3.2913284e+000  1.5686335e-002  9.6936271e-002  1.3801345e-005  9.6936271e-002  2.0183702e+000  2.0183702e+000  2.0230684e+000 
 3.6376448e+000  1.5686335e-002  9.5893778e-002  1.0698767e-005  9.5893778e-002  1.9720247e+000  1.9720247e+000  1.9766225e+000 
 4.0185938e+000  1.5686335e-002  9.5015116e-002  8.2555998e-006  9.5015116e-002  1.9222845e+000  1.9222845e+000  1.9267985e+000 
 4.4376373e+000  1.5686335e-002  9.4292060e-002  6.0850839e-006  9.4292060e-002  1.8687217e+000  1.8687217e+000  1.8731673e+000 
 4.8985853e+000  1.5686335e-002  9.3713067e-002  4.3967543e-006  9.3713067e-002  1.8108426e+000  1.8108426e+000  1.8152337e+000 
 5.4056287e+000  1.5686335e-002  9.3263529e-002  3.0896017e-006  9.3263529e-002  1.7480850e+000  1.7480850e+000  1.7524340e+000 
 5.9633760e+000  1.5686335e-002  9.2926294e-002  2.0762316e-006  9.2926294e-002  1.6798199e+000  1.6798199e+000  1.6841376e+000 
 6.5768986e+000  1.5686335e-002  9.2682667e-002  1.2669088e-006  9.2682667e-002  1.6053526e+000  1.6053526e+000  1.6096476e+000 
 7.2517719e+000  1.5686335e-002  9.2513889e-002  8.4741811e-007  9.2513889e-002  1.5239253e+000  1.5239253e+000  1.5282047e+000 
 7.9941325e+000  1.5686335e-002  9.2402235e-002  4.7846743e-007  9.2402235e-002  1.4347179e+000  1.4347179e+000  1.4389870e+000 
 8.8107300e+000  1.5686335e-002  9.2331976e-002  2.6073653e-007  9.2331976e-002  1.3368465e+000  1.3368465e+000  1.3411090e+000 
 9.7089853e+000  1.5686335e-002  9.2290200e-002  1.7550047e-007  9.2290200e-002  1.2293603e+000  1.2293603e+000  1.2336191e+000 
 1.0697069e+001  1.5686335e-002  9.2266783e-002  7.3317501e-008  9.2266783e-002  1.1112342e+000  1.1112342e+000  1.1154908e+000 
 1.1783960e+001  1.5686335e-002  9.2254534e-002  1.3939136e-008  9.2254534e-002  9.8136026e-001  9.8136026e-001  9.8561573e-001 
 1.2979540e+001  1.5686335e-002  9.2248589e-002  1.7630098e-008  9.2248589e-002  8.3853447e-001  8.3853447e-001  8.4278935e-001 
 1.4294680e+001  1.5686335e-002  9.2245944e-002  3.8124574e-007  9.2245944e-002  6.8144399e-001  6.8144399e-001  6.8569863e-001 
 1.5741329e+001  1.5686335e-002  9.2244849e-002  5.9938526e-007  9.2244849e-002  5.0865316e-001  5.0865316e-001  5.1290774e-001 
 1.7332649e+001  1.5686335e-002  9.2244476e-002  3.7399792e-007  9.2244476e-002  3.1858596e-001  3.1858596e-001  3.2284048e-001 
 1.9083099e+001  1.5686335e-002  9.2244305e-002 -7.4578544e-008  9.2244305e-002  1.0951336e-001  1.0951336e-001  1.1376787e-001 
 2.0000000e+001  1.5686335e-002  9.2244327e-002 -1.0721663e-007  9.2244327e-002  0.0000000e+000  0.0000000e+000  4.2545078e-003 
 0.0000000e+000  4.8627645e-002  1.0000000e+000  0.0000000e+000  1.0000000e+000  3.1909480e+000  3.1909480e+000  3.6909480e+000 
 8.5914601e-003  4.8627645e-002  1.0246422e+000  1.0167824e-001  1.0296748e+000  3.1533241e+000  3.1533241e+000  3.6834393e+000 
 2.6634214e-002  4.8627645e-002  1.0654365e+000  2.1575205e-001  1.0870620e+000  3.0743110e+000  3.0743110e+000  3.6651630e+000 
 4.6481326e-002  4.8627645e-002  1.0777717e+000  2.5178421e-001  1.1067914e+000  2.9821408e+000  2.9821408e+000  3.5946343e+000 
 6.8312839e-002  4.8627645e-002  1.0567617e+000  2.3778027e-001  1.0831827e+000  2.8902605e+000  2.8902605e+000  3.4769030e+000 
 9.2327118e-002  4.8627645e-002  1.0079677e+000  1.9769618e-001  1.0271722e+000  2.8087454e+000  2.8087454e+000  3.3362868e+000 
 1.1874315e-001  4.8627645e-002  9.4104630e-001  1.5010029e-001  9.5294189e-001  2.7418597e+000  2.7418597e+000  3.1959088e+000 
 1.4780119e-001  4.8627645e-002  8.6596465e-001  1.0715540e-001  8.7256920e-001  2.6896815e+000  2.6896815e+000  3.0703700e+000 
 1.7976375e-001  4.8627645e-002  7.9097480e-001  7.4208409e-002  7.9444826e-001  2.6495233e+000  2.6495233e+000  2.9650972e+000 
 2.1492310e-001  4.8627645e-002  7.2150671e-001  5.1439561e-002  7.2333807e-001  2.6178844e+000  2.6178844e+000  2.8794935e+000 
 2.5359955e-001  4.8627645e-002  6.6010398e-001  3.6495585e-002  6.6111207e-001  2.5918353e+000  2.5918353e+000  2.8103700e+000 
 2.9614329e-001  4.8627645e-002  6.0716707e-001  2.6665067e-002  6.0775232e-001  2.5693820e+000  2.5693820e+000  2.7540634e+000 
 3.4294125e-001  4.8627645e-002  5.6195933e-001  1.9935232e-002  5.6231278e-001  2.5492473e+000  2.5492473e+000  2.7073450e+000 
 3.9441910e-001  4.8627645e-002  5.2340245e-001  1.5110735e-002  5.2362055e-001  2.5305624e+000  2.5305624e+000  2.6676517e+000 
 4.5104450e-001  4.8627645e-002  4.9047613e-001  1.1541475e-002  4.9061191e-001  2.5126715e+000  2.5126715e+000  2.6330216e+000 
 5.1333237e-001  4.8627645e-002  4.6232429e-001  8.8583473e-003  4.6240914e-001  2.4950533e+000  2.4950533e+000  2.6019645e+000 
 5.8184898e-001  4.8627645e-002  4.3823591e-001  6.8273288e-003  4.3828908e-001  2.4772885e+000  2.4772885e+000  2.5733371e+000 
 6.5721673e-001  4.8627645e-002  4.1760379e-001  5.2862228e-003  4.1763726e-001  2.4590394e+000  2.4590394e+000  2.5462499e+000 
 7.4012148e-001  4.8627645e-002  3.9989442e-001  4.1172248e-003  3.9991561e-001  2.4400342e+000  2.4400342e+000  2.5200005e+000 
 8.3131790e-001  4.8627645e-002  3.8463399e-001  3.2317329e-003  3.8464758e-001  2.4200547e+000  2.4200547e+000  2.4940317e+000 
 9.3163371e-001  4.8627645e-002  3.7140352e-001  2.5608786e-003  3.7141234e-001  2.3989305e+000  2.3989305e+000  2.4679041e+000 
 1.0419813e+000  4.8627645e-002  3.5983971e-001  2.0513872e-003  3.5984555e-001  2.3765287e+000  2.3765287e+000  2.4412732e+000 
 1.1633635e+000  4.8627645e-002  3.4963700e-001  1.6610804e-003  3.4964094e-001  2.3527462e+000  2.3527462e+000  2.4138706e+000 
 1.2968825e+000  4.8627645e-002  3.4054887e-001  1.3579872e-003  3.4055158e-001  2.3274992e+000  2.3274992e+000  2.3854868e+000 
 1.4437546e+000  4.8627645e-002  3.3238402e-001  1.1188155e-003  3.3238590e-001  2.3007121e+000  2.3007121e+000  2.3559523e+000 
 1.6053140e+000  4.8627645e-002  3.2500193e-001  9.2587649e-004  3.2500324e-001  2.2723091e+000  2.2723091e+000  2.3251226e+000 
 1.7830285e+000  4.8627645e-002  3.1830287e-001  7.6761685e-004  3.1830379e-001  2.2422044e+000  2.2422044e+000  2.2928631e+000 
 1.9785155e+000  4.8627645e-002  3.1221905e-001  6.3556596e-004  3.1221971e-001  2.2102964e+000  2.2102964e+000  2.2590370e+000 
 2.1935515e+000  4.8627645e-002  3.0670506e-001  5.2428438e-004  3.0670550e-001  2.1764636e+000  2.1764636e+000  2.2234976e+000 
 2.4300904e+000  4.8627645e-002  3.0173197e-001  4.2950513e-004  3.0173227e-001  2.1405587e+000  2.1405587e+000  2.1860800e+000 
 2.6902835e+000  4.8627645e-002  2.9728091e-001  3.4877314e-004  2.9728112e-001  2.1024046e+000  2.1024046e+000  2.1465926e+000 
 2.9764955e+000  4.8627645e-002  2.9333910e-001  2.7964026e-004  2.9333922e-001  2.0617876e+000  2.0617876e+000  2.1048117e+000 
 3.2913284e+000  4.8627645e-002  2.8989604e-001  2.2083535e-004  2.8989613e-001  2.0184515e+000  2.0184515e+000  2.0604713e+000 
 3.6376448e+000  4.8627645e-002  2.8693888e-001  1.7120485e-004  2.8693894e-001  1.9720875e+000  1.9720875e+000  2.0132544e+000 
 4.0185938e+000  4.8627645e-002  2.8445008e-001  1.2970863e-004  2.8445011e-001  1.9223320e+000  1.9223320e+000  1.9627880e+000 
 4.4376373e+000  4.8627645e-002  2.8240454e-001  9.5916752e-005  2.8240457e-001  1.8687569e+000  1.8687569e+000  1.9086331e+000 
 4.8985853e+000  4.8627645e-002  2.8076828e-001  6.8962654e-005  2.8076828e-001  1.8108678e+000  1.8108678e+000  1.8502831e+000 
 5.4056287e+000  4.8627645e-002  2.7949885e-001  4.7964706e-005  2.7949885e-001  1.7481025e+000  1.7481025e+000  1.7871623e+000 
 5.9633760e+000  4.8627645e-002  2.7854711e-001  3.2209926e-005  2.7854711e-001  1.6798317e+000  1.6798317e+000  1.7186260e+000 
 6.5768986e+000  4.8627645e-002  2.7785996e-001  2.0877083e-005  2.7785996e-001  1.6053602e+000  1.6053602e+000  1.6439632e+000 
 7.2517719e+000  4.8627645e-002  2.7738413e-001  1.2818671e-005  2.7738413e-001  1.5239301e+000  1.5239301e+000  1.5624011e+000 
 7.9941325e+000  4.8627645e-002  2.7706945e-001  7.5700686e-006  2.7706945e-001  1.4347205e+000  1.4347205e+000  1.4731042e+000 
 8.8107300e+000  4.8627645e-002  2.7687147e-001  4.2460701e-006  2.7687147e-001  1.3368479e+000  1.3368479e+000  1.3751768e+000 
 9.7089853e+000  4.8627645e-002  2.7675372e-001  2.2649385e-006  2.7675372e-001  1.2293612e+000  1.2293612e+000  1.2676575e+000 
 1.0697069e+001  4.8627645e-002  2.7668780e-001  1.1358982e-006  2.7668780e-001  1.1112347e+000  1.1112347e+000  1.1495128e+000 
 1.1783960e+001  4.8627645e-002  2.7665332e-001  5.6114146e-007  2.7665332e-001  9.8136038e-001  9.8136038e-001  1.0196289e+000 
 1.2979540e+001  4.8627645e-002  2.7663654e-001  2.3330729e-007  2.7663654e-001  8.3853459e-001  8.3853459e-001  8.7679851e-001 
 1.4294680e+001  4.8627645e-002  2.7662915e-001 -1.9733373e-007  2.7662915e-001  6.8144274e-001  6.8144274e-001  7.1970457e-001 
 1.5741329e+001  4.8627645e-002  2.7662608e-001 -4.6289330e-007  2.7662608e-001  5.0865126e-001  5.0865126e-001  5.4691225e-001 
 1.7332649e+001  4.8627645e-002  2.7662501e-001 -3.1896030e-007  2.7662501e-001  3.1858474e-001  3.1858474e-001  3.5684544e-001 
 1.9083099e+001  4.8627645e-002  2.7662456e-001  6.8924187e-008  2.7662456e-001  1.0951337e-001  1.0951337e-001  1.4777395e-001 
 2.0000000e+001  4.8627645e-002  2.7662456e-001  9.2548895e-008  2.7662456e-001  0.0000000e+000  0.0000000e+000  3.8260575e-002 
 0.0000000e+000  8.4863111e-002  1.0000000e+000  0.0000000e+000  1.0000000e+000  2.9522736e+000  2.9522736e+000  3.4522736e+000 
 8.5914601e-003  8.4863111e-002  1.0045962e+000  3.7729748e-002  1.0053045e+000  2.9504130e+000  2.9504130e+000  3.4557316e+000 
 2.6634214e-002  8.4863111e-002  1.0311197e+000  1.0960346e-001  1.0369285e+000  2.9465053e+000  2.9465053e+000  3.4841156e+000 
 4.6481326e-002  8.4863111e-002  1.0732024e+000  1.6667645e-001  1.0860683e+000  2.9074664e+000  2.9074664e+000  3.4972386e+000 
 6.8312839e-002  8.4863111e-002  1.1120851e+000  2.0038295e-001  1.1299940e+000  2.8509257e+000  2.8509257e+000  3.4893689e+000 
 9.2327118e-002  8.4863111e-002  1.1350671e+000  2.0963836e-001  1.1542641e+000  2.7931383e+000  2.7931383e+000  3.4593010e+000 
 1.1874315e-001  8.4863111e-002  1.1374822e+000  1.9918460e-001  1.1547900e+000  2.7401783e+000  2.7401783e+000  3.4069483e+000 
 1.4780119e-001  8.4863111e-002  1.1197498e+000  1.7647347e-001  1.1335707e+000  2.6948025e+000  2.6948025e+000  3.3372939e+000 
 1.7976375e-001  8.4863111e-002  1.0855997e+000  1.4869544e-001  1.0957358e+000  2.6575367e+000  2.6575367e+000  3.2578552e+000 
 2.1492310e-001  8.4863111e-002  1.0403644e+000  1.2108201e-001  1.0473866e+000  2.6268818e+000  2.6268818e+000  3.1753912e+000 
 2.5359955e-001  8.4863111e-002  9.8930103e-001  9.6528545e-002  9.9399912e-001  2.6007562e+000  2.6007562e+000  3.0947733e+000 
 2.9614329e-001  8.4863111e-002  9.3660533e-001  7.6051243e-002  9.3968791e-001  2.5775521e+000  2.5775521e+000  3.0190587e+000 
 3.4294125e-001  8.4863111e-002  8.8517666e-001  5.9553210e-002  8.8717771e-001  2.5562878e+000  2.5562878e+000  2.9498298e+000 
 3.9441910e-001  8.4863111e-002  8.3680582e-001  4.6481937e-002  8.3809578e-001  2.5363557e+000  2.5363557e+000  2.8875580e+000 
 4.5104450e-001  8.4863111e-002  7.9246408e-001  3.6208000e-002  7.9329085e-001  2.5172873e+000  2.5172873e+000  2.8319423e+000 
 5.1333237e-001  8.4863111e-002  7.5255281e-001  2.8172662e-002  7.5307995e-001  2.4986563e+000  2.4986563e+000  2.7822211e+000 
 5.8184898e-001  8.4863111e-002  7.1709335e-001  2.1916734e-002  7.1742821e-001  2.4800675e+000  2.4800675e+000  2.7374191e+000 
 6.5721673e-001  8.4863111e-002  6.8586707e-001  1.7070064e-002  6.8607944e-001  2.4611692e+000  2.4611692e+000  2.6965218e+000 
 7.4012148e-001  8.4863111e-002  6.5851438e-001  1.3334723e-002  6.5864938e-001  2.4416621e+000  2.4416621e+000  2.6585715e+000 
 8.3131790e-001  8.4863111e-002  6.3460416e-001  1.0470039e-002  6.3469052e-001  2.4212999e+000  2.4212999e+000  2.6227160e+000 
 9.3163371e-001  8.4863111e-002  6.1368120e-001  8.2806181e-003  6.1373705e-001  2.3998864e+000  2.3998864e+000  2.5882230e+000 
 1.0419813e+000  8.4863111e-002  5.9530187e-001  6.6073271e-003  5.9533852e-001  2.3772674e+000  2.3772674e+000  2.5544813e+000 
 1.1633635e+000  8.4863111e-002  5.7905948e-001  5.3232107e-003  5.7908392e-001  2.3533223e+000  2.3533223e+000  2.5209913e+000 
 1.2968825e+000  8.4863111e-002  5.6460351e-001  4.3284288e-003  5.6462008e-001  2.3279536e+000  2.3279536e+000  2.4873514e+000 
 1.4437546e+000  8.4863111e-002  5.5164701e-001  3.5460230e-003  5.5165839e-001  2.3010743e+000  2.3010743e+000  2.4532378e+000 
 1.6053140e+000  8.4863111e-002  5.3996885e-001  2.9199319e-003  5.3997672e-001  2.2726004e+000  2.2726004e+000  2.4183879e+000 
 1.7830285e+000  8.4863111e-002  5.2940565e-001  2.4101897e-003  5.2941114e-001  2.2424402e+000  2.2424402e+000  2.3825784e+000 
 1.9785155e+000  8.4863111e-002  5.1984227e-001  1.9882107e-003  5.1984608e-001  2.2104878e+000  2.2104878e+000  2.3456078e+000 
 2.1935515e+000  8.4863111e-002  5.1119971e-001  1.6347835e-003  5.1120234e-001  2.1766188e+000  2.1766188e+000  2.3072827e+000 
 2.4300904e+000  8.4863111e-002  5.0342542e-001  1.3357955e-003  5.0342721e-001  2.1406844e+000  2.1406844e+000  2.2674038e+000 
 2.6902835e+000  8.4863111e-002  4.9648419e-001  1.0818708e-003  4.9648538e-001  2.1025054e+000  2.1025054e+000  2.2257543e+000 
 2.9764955e+000  8.4863111e-002  4.9035102e-001  8.6561276e-004  4.9035180e-001  2.0618680e+000  2.0618680e+000  2.1820903e+000 
 3.2913284e+000  8.4863111e-002  4.8500490e-001  6.8218191e-004  4.8500538e-001  2.0185142e+000  2.0185142e+000  2.1361294e+000 
 3.6376448e+000  8.4863111e-002  4.8042208e-001  5.2805356e-004  4.8042238e-001  1.9721359e+000  1.9721359e+000  2.0875387e+000 
 4.0185938e+000  8.4863111e-002  4.7657156e-001  3.9975645e-004  4.7657174e-001  1.9223685e+000  1.9223685e+000  2.0359287e+000 
 4.4376373e+000  8.4863111e-002  4.7341150e-001  2.9534707e-004  4.7341159e-001  1.8687840e+000  1.8687840e+000  1.9808432e+000 
 4.8985853e+000  8.4863111e-002  4.7088695e-001  2.1198035e-004  4.7088701e-001  1.8108871e+000  1.8108871e+000  1.9217544e+000 
 5.4056287e+000  8.4863111e-002  4.6893030e-001  1.4742122e-004  4.6893033e-001  1.7481159e+000  1.7481159e+000  1.8580637e+000 
 5.9633760e+000  8.4863111e-002  4.6746445e-001  9.8944431e-005  4.6746445e-001  1.6798408e+000  1.6798408e+000  1.7891023e+000 
 6.5768986e+000  8.4863111e-002  4.6640688e-001  6.3879721e-005  4.6640688e-001  1.6053660e+000  1.6053660e+000  1.7141337e+000 
 7.2517719e+000  8.4863111e-002  4.6567488e-001  3.9494716e-005  4.6567488e-001  1.5239336e+000  1.5239336e+000  1.6323602e+000 
 7.9941325e+000  8.4863111e-002  4.6519095e-001  2.3291284e-005  4.6519095e-001  1.4347227e+000  1.4347227e+000  1.5429239e+000 
 8.8107300e+000  8.4863111e-002  4.6488664e-001  1.3049464e-005  4.6488664e-001  1.3368491e+000  1.3368491e+000  1.4449089e+000 
 9.7089853e+000  8.4863111e-002  4.6470565e-001  6.8897534e-006  4.6470565e-001  1.2293618e+000  1.2293618e+000  1.3373375e+000 
 1.0697069e+001  8.4863111e-002  4.6460435e-001  3.4371526e-006  4.6460435e-001  1.1112348e+000  1.1112348e+000  1.2191634e+000 
 1.1783960e+001  8.4863111e-002  4.6455139e-001  1.5624604e-006  4.6455139e-001  9.8136050e-001  9.8136050e-001  1.0892645e+000 
 1.2979540e+001  8.4863111e-002  4.6452564e-001  6.5090825e-007  4.6452564e-001  8.3853465e-001  8.3853465e-001  9.4642669e-001 
 1.4294680e+001  8.4863111e-002  4.6451420e-001  2.1927907e-007  4.6451420e-001  6.8144536e-001  6.8144536e-001  7.8933209e-001 
 1.5741329e+001  8.4863111e-002  4.6450958e-001  2.6872183e-007  4.6450958e-001  5.0865555e-001  5.0865555e-001  6.1654013e-001 
 1.7332649e+001  8.4863111e-002  4.6450800e-001  1.9558394e-007  4.6450800e-001  3.1858751e-001  3.1858751e-001  4.2647135e-001 
 1.9083099e+001  8.4863111e-002  4.6450734e-001 -2.5653870e-008  4.6450734e-001  1.0951298e-001  1.0951298e-001  2.1739651e-001 
 2.0000000e+001  8.4863111e-002  4.6450734e-001 -3.7548066e-008  4.6450734e-001  0.0000000e+000  0.0000000e+000  1.0788354e-001 
 0.0000000e+000  1.2472210e-001  1.0000000e+000  0.0000000e+000  1.0000000e+000  2.8430989e+000  2.8430989e+000  3.3430989e+000 
 8.5914601e-003  1.2472210e-001  1.0011095e+000  1.8627001e-002  1.0012828e+000  2.8434355e+000  2.8434355e+000  3.3447192e+000 
 2.6634214e-002  1.2472210e-001  1.0113119e+000  5.8670491e-002  1.0130123e+000  2.8441427e+000  2.8441427e+000  3.3572397e+000 
 4.6481326e-002  1.2472210e-001  1.0346514e+000  9.7876325e-002  1.0392705e+000  2.8289335e+000  2.8289335e+000  3.3689752e+000 
 6.8312839e-002  1.2472210e-001  1.0667573e+000  1.3132297e-001  1.0748101e+000  2.8011322e+000  2.8011322e+000  3.3787405e+000 
 9.2327118e-002  1.2472210e-001  1.1010447e+000  1.5552089e-001  1.1119740e+000  2.7672734e+000  2.7672734e+000  3.3855164e+000 
 1.1874315e-001  1.2472210e-001  1.1314378e+000  1.6856569e-001  1.1439257e+000  2.7312505e+000  2.7312505e+000  3.3855333e+000 
 1.4780119e-001  1.2472210e-001  1.1530911e+000  1.7063342e-001  1.1656477e+000  2.6959169e+000  2.6959169e+000  3.3752842e+000 
 1.7976375e-001  1.2472210e-001  1.1631354e+000  1.6365832e-001  1.1745927e+000  2.6632946e+000  2.6632946e+000  3.3531287e+000 
 2.1492310e-001  1.2472210e-001  1.1609049e+000  1.5038578e-001  1.1706049e+000  2.6341031e+000  2.6341031e+000  3.3192611e+000 
 2.5359955e-001  1.2472210e-001  1.1474488e+000  1.3353427e-001  1.1551926e+000  2.6080680e+000  2.6080680e+000  3.2753031e+000 
 2.9614329e-001  1.2472210e-001  1.1248151e+000  1.1533856e-001  1.1307131e+000  2.5845106e+000  2.5845106e+000  3.2237666e+000 
 3.4294125e-001  1.2472210e-001  1.0954459e+000  9.7408995e-002  1.0997683e+000  2.5627306e+000  2.5627306e+000  3.1674757e+000 
 3.9441910e-001  1.2472210e-001  1.0617745e+000  8.0773786e-002  1.0648425e+000  2.5421515e+000  2.5421515e+000  3.1090963e+000 
 4.5104450e-001  1.2472210e-001  1.0259892e+000  6.5993473e-002  1.0281094e+000  2.5223229e+000  2.5223229e+000  3.0508273e+000 
 5.1333237e-001  1.2472210e-001  9.8990089e-001  5.3287923e-002  9.9133414e-001  2.5028765e+000  2.5028765e+000  2.9942482e+000 
 5.8184898e-001  1.2472210e-001  9.5488411e-001  4.2650118e-002  9.5583612e-001  2.4834898e+000  2.4834898e+000  2.9403012e+000 
 6.5721673e-001  1.2472210e-001  9.2187417e-001  3.3934548e-002  9.2249852e-001  2.4638689e+000  2.4638689e+000  2.8893707e+000 
 7.4012148e-001  1.2472210e-001  8.9140970e-001  2.6921798e-002  8.9181614e-001  2.4437461e+000  2.4437461e+000  2.8414142e+000 
 8.3131790e-001  1.2472210e-001  8.6370760e-001  2.1362659e-002  8.6397177e-001  2.4228840e+000  2.4228840e+000  2.7961075e+000 
 9.3163371e-001  1.2472210e-001  8.3874899e-001  1.7005226e-002  8.3892137e-001  2.4010794e+000  2.4010794e+000  2.7529740e+000 
 1.0419813e+000  1.2472210e-001  8.1636322e-001  1.3612606e-002  8.1647670e-001  2.3781629e+000  2.3781629e+000  2.7114799e+000 
 1.1633635e+000  1.2472210e-001  7.9629928e-001  1.0974897e-002  7.9637492e-001  2.3539963e+000  2.3539963e+000  2.6711028e+000 