Variables = "x","y", "Velocity_x", "Velocity_y", "Velocity_whole value", "Pressure", "Temperature", "Absolute pressure", "Total pressure"
Zone i=82, j=82
 0.0000000e+000  0.0000000e+000  0.0000000e+000  0.0000000e+000  0.0000000e+000  2.1176334e-002  1.0000405e+002  2.1176334e-002  2.1176334e-002 
 6.2499950e-003  0.0000000e+000  0.0000000e+000  0.0000000e+000  0.0000000e+000  2.1188524e-002  1.0165150e+002  2.1188524e-002  2.1188524e-002 
 1.8749986e-002  0.0000000e+000  0.0000000e+000  0.0000000e+000  0.0000000e+000  2.1212902e-002  1.0493828e+002  2.1212902e-002  2.1212902e-002 
 3.1249970e-002  0.0000000e+000  0.0000000e+000  0.0000000e+000  0.0000000e+000  2.1230634e-002  1.0817179e+002  2.1230634e-002  2.1230634e-002 
 4.3749955e-002  0.0000000e+000  0.0000000e+000  0.0000000e+000  0.0000000e+000  2.1231452e-002  1.1134645e+002  2.1231452e-002  2.1231452e-002 
 5.6249946e-002  0.0000000e+000  0.0000000e+000  0.0000000e+000  0.0000000e+000  2.1208756e-002  1.1447984e+002  2.1208756e-002  2.1208756e-002 
 6.8749934e-002  0.0000000e+000  0.0000000e+000  0.0000000e+000  0.0000000e+000  2.1162415e-002  1.1760567e+002  2.1162415e-002  2.1162415e-002 
 8.1249923e-002  0.0000000e+000  0.0000000e+000  0.0000000e+000  0.0000000e+000  2.1096092e-002  1.2076689e+002  2.1096092e-002  2.1096092e-002 
 9.3749911e-002  0.0000000e+000  0.0000000e+000  0.0000000e+000  0.0000000e+000  2.1015305e-002  1.2401009e+002  2.1015305e-002  2.1015305e-002 
 1.0624990e-001  0.0000000e+000  0.0000000e+000  0.0000000e+000  0.0000000e+000  2.0925544e-002  1.2737936e+002  2.0925544e-002  2.0925544e-002 
 1.1874990e-001  0.0000000e+000  0.0000000e+000  0.0000000e+000  0.0000000e+000  2.0830888e-002  1.3091013e+002  2.0830888e-002  2.0830888e-002 
 1.3124990e-001  0.0000000e+000  0.0000000e+000  0.0000000e+000  0.0000000e+000  2.0733360e-002  1.3462265e+002  2.0733360e-002  2.0733360e-002 
 1.4374995e-001  0.0000000e+000  0.0000000e+000  0.0000000e+000  0.0000000e+000  2.0633060e-002  1.3851660e+002  2.0633060e-002  2.0633060e-002 
 1.5625000e-001  0.0000000e+000  0.0000000e+000  0.0000000e+000  0.0000000e+000  2.0525798e-002  1.4256715e+002  2.0525798e-002  2.0525798e-002 
 1.6875005e-001  0.0000000e+000  0.0000000e+000  0.0000000e+000  0.0000000e+000  2.0408295e-002  1.4672403e+002  2.0408295e-002  2.0408295e-002 
 1.8125010e-001  0.0000000e+000  0.0000000e+000  0.0000000e+000  0.0000000e+000  2.0276021e-002  1.5091312e+002  2.0276021e-002  2.0276021e-002 
 1.9375014e-001  0.0000000e+000  0.0000000e+000  0.0000000e+000  0.0000000e+000  2.0124776e-002  1.5504106e+002  2.0124776e-002  2.0124776e-002 
 2.0625019e-001  0.0000000e+000  0.0000000e+000  0.0000000e+000  0.0000000e+000  1.9950673e-002  1.5900385e+002  1.9950673e-002  1.9950673e-002 
 2.1875025e-001  0.0000000e+000  0.0000000e+000  0.0000000e+000  0.0000000e+000  1.9749720e-002  1.6269737e+002  1.9749720e-002  1.9749720e-002 
 2.3125030e-001  0.0000000e+000  0.0000000e+000  0.0000000e+000  0.0000000e+000  1.9518631e-002  1.6602838e+002  1.9518631e-002  1.9518631e-002 
 2.4375033e-001  0.0000000e+000  0.0000000e+000  0.0000000e+000  0.0000000e+000  1.9254370e-002  1.6892499e+002  1.9254370e-002  1.9254370e-002 
 2.5625038e-001  0.0000000e+000  0.0000000e+000  0.0000000e+000  0.0000000e+000  1.8954234e-002  1.7134546e+002  1.8954234e-002  1.8954234e-002 
 2.6875046e-001  0.0000000e+000  0.0000000e+000  0.0000000e+000  0.0000000e+000  1.8616088e-002  1.7328304e+002  1.8616088e-002  1.8616088e-002 
 2.8125051e-001  0.0000000e+000  0.0000000e+000  0.0000000e+000  0.0000000e+000  1.8238422e-002  1.7476498e+002  1.8238422e-002  1.8238422e-002 
 2.9375049e-001  0.0000000e+000  0.0000000e+000  0.0000000e+000  0.0000000e+000  1.7820846e-002  1.7584595e+002  1.7820846e-002  1.7820846e-002 
 3.0625054e-001  0.0000000e+000  0.0000000e+000  0.0000000e+000  0.0000000e+000  1.7364595e-002  1.7659908e+002  1.7364595e-002  1.7364595e-002 
 3.1875062e-001  0.0000000e+000  0.0000000e+000  0.0000000e+000  0.0000000e+000  1.6873050e-002  1.7710352e+002  1.6873050e-002  1.6873050e-002 
 3.3125067e-001  0.0000000e+000  0.0000000e+000  0.0000000e+000  0.0000000e+000  1.6352113e-002  1.7743347e+002  1.6352113e-002  1.6352113e-002 
 3.4375072e-001  0.0000000e+000  0.0000000e+000  0.0000000e+000  0.0000000e+000  1.5810680e-002  1.7765073e+002  1.5810680e-002  1.5810680e-002 
 3.5625076e-001  0.0000000e+000  0.0000000e+000  0.0000000e+000  0.0000000e+000  1.5260736e-002  1.7780150e+002  1.5260736e-002  1.5260736e-002 
 3.6875081e-001  0.0000000e+000  0.0000000e+000  0.0000000e+000  0.0000000e+000  1.4717736e-002  1.7791718e+002  1.4717736e-002  1.4717736e-002 
 3.8125086e-001  0.0000000e+000  0.0000000e+000  0.0000000e+000  0.0000000e+000  1.4200643e-002  1.7801703e+002  1.4200643e-002  1.4200643e-002 
 3.9375091e-001  0.0000000e+000  0.0000000e+000  0.0000000e+000  0.0000000e+000  1.3730520e-002  1.7811191e+002  1.3730520e-002  1.3730520e-002 
 4.0625095e-001  0.0000000e+000  0.0000000e+000  0.0000000e+000  0.0000000e+000  1.3331174e-002  1.7820729e+002  1.3331174e-002  1.3331174e-002 
 4.1875100e-001  0.0000000e+000  0.0000000e+000  0.0000000e+000  0.0000000e+000  1.3026305e-002  1.7830582e+002  1.3026305e-002  1.3026305e-002 
 4.3125105e-001  0.0000000e+000  0.0000000e+000  0.0000000e+000  0.0000000e+000  1.2839997e-002  1.7840875e+002  1.2839997e-002  1.2839997e-002 
 4.4375110e-001  0.0000000e+000  0.0000000e+000  0.0000000e+000  0.0000000e+000  1.2795584e-002  1.7851651e+002  1.2795584e-002  1.2795584e-002 
 4.5625114e-001  0.0000000e+000  0.0000000e+000  0.0000000e+000  0.0000000e+000  1.2911266e-002  1.7862927e+002  1.2911266e-002  1.2911266e-002 
 4.6875119e-001  0.0000000e+000  0.0000000e+000  0.0000000e+000  0.0000000e+000  1.3201848e-002  1.7874702e+002  1.3201848e-002  1.3201848e-002 
 4.8125124e-001  0.0000000e+000  0.0000000e+000  0.0000000e+000  0.0000000e+000  1.3677595e-002  1.7886963e+002  1.3677595e-002  1.3677595e-002 
 4.9375129e-001  0.0000000e+000  0.0000000e+000  0.0000000e+000  0.0000000e+000  1.4338393e-002  1.7899704e+002  1.4338393e-002  1.4338393e-002 
 5.0625134e-001  0.0000000e+000  0.0000000e+000  0.0000000e+000  0.0000000e+000  1.5169672e-002  1.7912909e+002  1.5169672e-002  1.5169672e-002 
 5.1875138e-001  0.0000000e+000  0.0000000e+000  0.0000000e+000  0.0000000e+000  1.6147109e-002  1.7926572e+002  1.6147109e-002  1.6147109e-002 
 5.3125143e-001  0.0000000e+000  0.0000000e+000  0.0000000e+000  0.0000000e+000  1.7260658e-002  1.7940688e+002  1.7260658e-002  1.7260658e-002 
 5.4375148e-001  0.0000000e+000  0.0000000e+000  0.0000000e+000  0.0000000e+000  1.8512290e-002  1.7955212e+002  1.8512290e-002  1.8512290e-002 
 5.5625153e-001  0.0000000e+000  0.0000000e+000  0.0000000e+000  0.0000000e+000  1.9798141e-002  1.7970135e+002  1.9798141e-002  1.9798141e-002 
 5.6875157e-001  0.0000000e+000  0.0000000e+000  0.0000000e+000  0.0000000e+000  2.1085087e-002  1.7985416e+002  2.1085087e-002  2.1085087e-002 
 5.8125162e-001  0.0000000e+000  0.0000000e+000  0.0000000e+000  0.0000000e+000  2.2319818e-002  1.8001018e+002  2.2319818e-002  2.2319818e-002 
 5.9375167e-001  0.0000000e+000  0.0000000e+000  0.0000000e+000  0.0000000e+000  2.3442170e-002  1.8016898e+002  2.3442170e-002  2.3442170e-002 
 6.0625172e-001  0.0000000e+000  0.0000000e+000  0.0000000e+000  0.0000000e+000  2.4392357e-002  1.8033011e+002  2.4392357e-002  2.4392357e-002 
 6.1875176e-001  0.0000000e+000  0.0000000e+000  0.0000000e+000  0.0000000e+000  2.5115285e-002  1.8049304e+002  2.5115285e-002  2.5115285e-002 
 6.3125181e-001  0.0000000e+000  0.0000000e+000  0.0000000e+000  0.0000000e+000  2.5564719e-002  1.8065723e+002  2.5564719e-002  2.5564719e-002 
 6.4375186e-001  0.0000000e+000  0.0000000e+000  0.0000000e+000  0.0000000e+000  2.5707534e-002  1.8082213e+002  2.5707534e-002  2.5707534e-002 
 6.5625191e-001  0.0000000e+000  0.0000000e+000  0.0000000e+000  0.0000000e+000  2.5529549e-002  1.8098706e+002  2.5529549e-002  2.5529549e-002 
 6.6875196e-001  0.0000000e+000  0.0000000e+000  0.0000000e+000  0.0000000e+000  2.5032353e-002  1.8115147e+002  2.5032353e-002  2.5032353e-002 
 6.8125200e-001  0.0000000e+000  0.0000000e+000  0.0000000e+000  0.0000000e+000  2.4238897e-002  1.8131497e+002  2.4238897e-002  2.4238897e-002 
 6.9375205e-001  0.0000000e+000  0.0000000e+000  0.0000000e+000  0.0000000e+000  2.3196224e-002  1.8147629e+002  2.3196224e-002  2.3196224e-002 
 7.0625210e-001  0.0000000e+000  0.0000000e+000  0.0000000e+000  0.0000000e+000  2.1970712e-002  1.8163501e+002  2.1970712e-002  2.1970712e-002 
 7.1875215e-001  0.0000000e+000  0.0000000e+000  0.0000000e+000  0.0000000e+000  2.0635115e-002  1.8178999e+002  2.0635115e-002  2.0635115e-002 
 7.3125219e-001  0.0000000e+000  0.0000000e+000  0.0000000e+000  0.0000000e+000  1.9257687e-002  1.8194006e+002  1.9257687e-002  1.9257687e-002 
 7.4375224e-001  0.0000000e+000  0.0000000e+000  0.0000000e+000  0.0000000e+000  1.7903263e-002  1.8208441e+002  1.7903263e-002  1.7903263e-002 
 7.5625229e-001  0.0000000e+000  0.0000000e+000  0.0000000e+000  0.0000000e+000  1.6621489e-002  1.8222217e+002  1.6621489e-002  1.6621489e-002 
 7.6875234e-001  0.0000000e+000  0.0000000e+000  0.0000000e+000  0.0000000e+000  1.5496421e-002  1.8235281e+002  1.5496421e-002  1.5496421e-002 
 7.8125238e-001  0.0000000e+000  0.0000000e+000  0.0000000e+000  0.0000000e+000  1.4519013e-002  1.8247632e+002  1.4519013e-002  1.4519013e-002 
 7.9375243e-001  0.0000000e+000  0.0000000e+000  0.0000000e+000  0.0000000e+000  1.3707748e-002  1.8259395e+002  1.3707748e-002  1.3707748e-002 
 8.0625248e-001  0.0000000e+000  0.0000000e+000  0.0000000e+000  0.0000000e+000  1.3063397e-002  1.8270886e+002  1.3063397e-002  1.3063397e-002 
 8.1875253e-001  0.0000000e+000  0.0000000e+000  0.0000000e+000  0.0000000e+000  1.2573561e-002  1.8282744e+002  1.2573561e-002  1.2573561e-002 
 8.3125257e-001  0.0000000e+000  0.0000000e+000  0.0000000e+000  0.0000000e+000  1.2218014e-002  1.8296111e+002  1.2218014e-002  1.2218014e-002 
 8.4375262e-001  0.0000000e+000  0.0000000e+000  0.0000000e+000  0.0000000e+000  1.1972643e-002  1.8312874e+002  1.1972643e-002  1.1972643e-002 
 8.5625267e-001  0.0000000e+000  0.0000000e+000  0.0000000e+000  0.0000000e+000  1.1814151e-002  1.8335855e+002  1.1814151e-002  1.1814151e-002 
 8.6875272e-001  0.0000000e+000  0.0000000e+000  0.0000000e+000  0.0000000e+000  1.1720598e-002  1.8368858e+002  1.1720598e-002  1.1720598e-002 
 8.8125277e-001  0.0000000e+000  0.0000000e+000  0.0000000e+000  0.0000000e+000  1.1673573e-002  1.8416460e+002  1.1673573e-002  1.1673573e-002 
 8.9375281e-001  0.0000000e+000  0.0000000e+000  0.0000000e+000  0.0000000e+000  1.1658343e-002  1.8483536e+002  1.1658343e-002  1.1658343e-002 
 9.0625286e-001  0.0000000e+000  0.0000000e+000  0.0000000e+000  0.0000000e+000  1.1663459e-002  1.8574515e+002  1.1663459e-002  1.1663459e-002 
 9.1875291e-001  0.0000000e+000  0.0000000e+000  0.0000000e+000  0.0000000e+000  1.1680889e-002  1.8692532e+002  1.1680889e-002  1.1680889e-002 
 9.3125296e-001  0.0000000e+000  0.0000000e+000  0.0000000e+000  0.0000000e+000  1.1705590e-002  1.8838727e+002  1.1705590e-002  1.1705590e-002 
 9.4375300e-001  0.0000000e+000  0.0000000e+000  0.0000000e+000  0.0000000e+000  1.1734918e-002  1.9011829e+002  1.1734918e-002  1.1734918e-002 
 9.5625305e-001  0.0000000e+000  0.0000000e+000  0.0000000e+000  0.0000000e+000  1.1767779e-002  1.9208276e+002  1.1767779e-002  1.1767779e-002 
 9.6875310e-001  0.0000000e+000  0.0000000e+000  0.0000000e+000  0.0000000e+000  1.1802837e-002  1.9422809e+002  1.1802837e-002  1.1802837e-002 
 9.8125315e-001  0.0000000e+000  0.0000000e+000  0.0000000e+000  0.0000000e+000  1.1835556e-002  1.9649467e+002  1.1835556e-002  1.1835556e-002 
 9.9375159e-001  0.0000000e+000  0.0000000e+000  0.0000000e+000  0.0000000e+000  1.1859249e-002  1.9882658e+002  1.1859249e-002  1.1859249e-002 
 1.0000000e+000  0.0000000e+000  0.0000000e+000  0.0000000e+000  0.0000000e+000  1.1871094e-002  1.9999620e+002  1.1871094e-002  1.1871094e-002 
 0.0000000e+000  6.2499950e-003  0.0000000e+000  0.0000000e+000  0.0000000e+000  2.1164663e-002  1.0000000e+002  2.1164663e-002  2.1164663e-002 
 6.2499950e-003  6.2499950e-003 -5.2175019e-005  4.8355112e-005  7.1136834e-005  2.1176858e-002  1.0166399e+002  2.1176858e-002  2.1176860e-002 
 1.8749986e-002  6.2499950e-003  1.0683933e-004 -3.1819414e-005  1.1147698e-004  2.1201249e-002  1.0497382e+002  2.1201249e-002  2.1201255e-002 
 3.1249970e-002  6.2499950e-003  5.3984800e-004 -9.6571450e-005  5.4841762e-004  2.1216061e-002  1.0822453e+002  2.1216061e-002  2.1216212e-002 
 4.3749955e-002  6.2499950e-003  1.1368011e-003 -1.2628123e-004  1.1437936e-003  2.1214312e-002  1.1140988e+002  2.1214312e-002  2.1214966e-002 
 5.6249946e-002  6.2499950e-003  1.7941192e-003 -1.2746331e-004  1.7986414e-003  2.1190800e-002  1.1454769e+002  2.1190800e-002  2.1192417e-002 
 6.8749934e-002  6.2499950e-003  2.4207199e-003 -1.0999553e-004  2.4232178e-003  2.1145450e-002  1.1767263e+002  2.1145450e-002  2.1148385e-002 
 8.1249923e-002  6.2499950e-003  2.9514364e-003 -8.2633494e-005  2.9525929e-003  2.1081524e-002  1.2082942e+002  2.1081524e-002  2.1085883e-002 
 9.3749911e-002  6.2499950e-003  3.3524586e-003 -5.4291868e-005  3.3528982e-003  2.1004016e-002  1.2406703e+002  2.1004016e-002  2.1009637e-002 
 1.0624990e-001  6.2499950e-003  3.6199214e-003 -3.1523512e-005  3.6200588e-003  2.0917857e-002  1.2743274e+002  2.0917857e-002  2.0924410e-002 
 1.1874990e-001  6.2499950e-003  3.7723135e-003 -1.8223340e-005  3.7723575e-003  2.0826694e-002  1.3096536e+002  2.0826694e-002  2.0833809e-002 
 1.3124990e-001  6.2499950e-003  3.8402870e-003 -1.4456553e-005  3.8403142e-003  2.0732211e-002  1.3468825e+002  2.0732211e-002  2.0739585e-002 
 1.4374995e-001  6.2499950e-003  3.8572943e-003 -1.7085626e-005  3.8573323e-003  2.0634195e-002  1.3860312e+002  2.0634195e-002  2.0641634e-002 
 1.5625000e-001  6.2499950e-003  3.8473005e-003 -2.8402243e-005  3.8474053e-003  2.0529378e-002  1.4268550e+002  2.0529378e-002  2.0536780e-002 
 1.6875005e-001  6.2499950e-003  3.8201998e-003 -4.3294058e-005  3.8204452e-003  2.0414419e-002  1.4688341e+002  2.0414419e-002  2.0421717e-002 
 1.8125010e-001  6.2499950e-003  3.7732762e-003 -5.8778904e-005  3.7737340e-003  2.0285146e-002  1.5111900e+002  2.0285146e-002  2.0292267e-002 
 1.9375014e-001  6.2499950e-003  3.6914111e-003 -7.1337243e-005  3.6921003e-003  2.0137476e-002  1.5529333e+002  2.0137476e-002  2.0144291e-002 
 2.0625019e-001  6.2499950e-003  3.5517407e-003 -7.8797042e-005  3.5526147e-003  1.9967621e-002  1.5929604e+002  1.9967621e-002  1.9973932e-002 
 2.1875025e-001  6.2499950e-003  3.3261976e-003 -8.2201921e-005  3.3272132e-003  1.9771935e-002  1.6301711e+002  1.9771935e-002  1.9777471e-002 
 2.3125030e-001  6.2499950e-003  2.9844770e-003 -8.1992854e-005  2.9856032e-003  1.9547245e-002  1.6635864e+002  1.9547245e-002  1.9551702e-002 
 2.4375033e-001  6.2499950e-003  2.4952481e-003 -7.8767371e-005  2.4964910e-003  1.9290611e-002  1.6924657e+002  1.9290611e-002  1.9293727e-002 
 2.5625038e-001  6.2499950e-003  1.8294993e-003 -7.2264054e-005  1.8309259e-003  1.8999336e-002  1.7164009e+002  1.8999336e-002  1.9001013e-002 
 2.6875046e-001  6.2499950e-003  9.5653685e-004 -6.1121849e-005  9.5848768e-004  1.8671161e-002  1.7353572e+002  1.8671161e-002  1.8671621e-002 
 2.8125051e-001  6.2499950e-003 -1.5456267e-004 -4.4298115e-005  1.6078539e-004  1.8304477e-002  1.7496703e+002  1.8304477e-002  1.8304490e-002 
 2.9375049e-001  6.2499950e-003 -1.5333520e-003 -2.0554422e-005  1.5334897e-003  1.7898705e-002  1.7599576e+002  1.7898705e-002  1.7899880e-002 
 3.0625054e-001  6.2499950e-003 -3.2068724e-003  1.1344100e-005  3.2068924e-003  1.7454788e-002  1.7670107e+002  1.7454788e-002  1.7459931e-002 
 3.1875062e-001  6.2499950e-003 -5.1971641e-003  5.2344865e-005  5.1974277e-003  1.6975725e-002  1.7716609e+002  1.6975725e-002  1.6989231e-002 
 3.3125067e-001  6.2499950e-003 -7.5189508e-003  1.0346858e-004  7.5196628e-003  1.6466904e-002  1.7746640e+002  1.6466904e-002  1.6495178e-002 
 3.4375072e-001  6.2499950e-003 -1.0177076e-002  1.6466997e-004  1.0178408e-002  1.5936658e-002  1.7766273e+002  1.5936658e-002  1.5988458e-002 
 3.5625076e-001  6.2499950e-003 -1.3164802e-002  2.3642617e-004  1.3166924e-002  1.5396321e-002  1.7779947e+002  1.5396321e-002  1.5483005e-002 
 3.6875081e-001  6.2499950e-003 -1.6463265e-002  3.1906710e-004  1.6466357e-002  1.4860611e-002  1.7790555e+002  1.4860611e-002  1.4996182e-002 
 3.8125086e-001  6.2499950e-003 -2.0038804e-002  4.1203428e-004  2.0043040e-002  1.4347541e-002  1.7799826e+002  1.4347541e-002  1.4548403e-002 
 3.9375091e-001  6.2499950e-003 -2.3841333e-002  5.1332719e-004  2.3846859e-002  1.3877513e-002  1.7808699e+002  1.3877513e-002  1.4161849e-002 
 4.0625095e-001  6.2499950e-003 -2.7809646e-002  6.2312791e-004  2.7816627e-002  1.3473203e-002  1.7817641e+002  1.3473203e-002  1.3860086e-002 
 4.1875100e-001  6.2499950e-003 -3.1869750e-002  7.2979543e-004  3.1878106e-002  1.3159072e-002  1.7826881e+002  1.3159072e-002  1.3667179e-002 
 4.3125105e-001  6.2499950e-003 -3.5928711e-002  8.3518465e-004  3.5938416e-002  1.2958106e-002  1.7836530e+002  1.2958106e-002  1.3603890e-002 
 4.4375110e-001  6.2499950e-003 -3.9890319e-002  9.3136146e-004  3.9901190e-002  1.2893767e-002  1.7846632e+002  1.2893767e-002  1.3689820e-002 
 4.5625114e-001  6.2499950e-003 -4.3651577e-002  1.0093009e-003  4.3663245e-002  1.2985365e-002  1.7857220e+002  1.2985365e-002  1.3938604e-002 
 4.6875119e-001  6.2499950e-003 -4.7098260e-002  1.0601234e-003  4.7110189e-002  1.3248324e-002  1.7868312e+002  1.3248324e-002  1.4358009e-002 
 4.8125124e-001  6.2499950e-003 -5.0107230e-002  1.0704786e-003  5.0118662e-002  1.3693664e-002  1.7879921e+002  1.3693664e-002  1.4949605e-002 
 4.9375129e-001  6.2499950e-003 -5.2538723e-002  1.0194291e-003  5.2548613e-002  1.4324424e-002  1.7892061e+002  1.4324424e-002  1.5705103e-002 
 5.0625134e-001  6.2499950e-003 -5.4279622e-002  9.0905436e-004  5.4287232e-002  1.5128908e-002  1.7904747e+002  1.5128908e-002  1.6602460e-002 
 5.1875138e-001  6.2499950e-003 -5.5280302e-002  7.3261670e-004  5.5285156e-002  1.6084341e-002  1.7917987e+002  1.6084341e-002  1.7612565e-002 
 5.3125143e-001  6.2499950e-003 -5.5459782e-002  5.4328248e-004  5.5462442e-002  1.7175989e-002  1.7931799e+002  1.7175989e-002  1.8714031e-002 
 5.4375148e-001  6.2499950e-003 -5.4759491e-002  4.2784569e-004  5.4761164e-002  1.8388398e-002  1.7946190e+002  1.8388398e-002  1.9887790e-002 
 5.5625153e-001  6.2499950e-003 -5.3028472e-002  1.9797334e-004  5.3028841e-002  1.9647893e-002  1.7961165e+002  1.9647893e-002  2.1053921e-002 
 5.6875157e-001  6.2499950e-003 -5.0311442e-002 -7.0734786e-005  5.0311491e-002  2.0913510e-002  1.7976703e+002  2.0913510e-002  2.2179132e-002 
 5.8125162e-001  6.2499950e-003 -4.6611607e-002 -3.5777836e-004  4.6612982e-002  2.2130942e-002  1.7992776e+002  2.2130942e-002  2.3217326e-002 
 5.9375167e-001  6.2499950e-003 -4.1968230e-002 -6.4444565e-004  4.1973177e-002  2.3240054e-002  1.8009346e+002  2.3240054e-002  2.4120929e-002 
 6.0625172e-001  6.2499950e-003 -3.6467716e-002 -9.1114052e-004  3.6479097e-002  2.4180844e-002  1.8026357e+002  2.4180844e-002  2.4846207e-002 
 6.1875176e-001  6.2499950e-003 -3.0239746e-002 -1.1344420e-003  3.0261017e-002  2.4897443e-002  1.8043733e+002  2.4897443e-002  2.5355307e-002 
 6.3125181e-001  6.2499950e-003 -2.3461111e-002 -1.2960334e-003  2.3496881e-002  2.5343306e-002  1.8061386e+002  2.5343306e-002  2.5619358e-002 
 6.4375186e-001  6.2499950e-003 -1.6343951e-002 -1.3853638e-003  1.6402559e-002  2.5485640e-002  1.8079210e+002  2.5485640e-002  2.5620162e-002 
 6.5625191e-001  6.2499950e-003 -9.1100046e-003 -1.3990622e-003  9.2168087e-003  2.5310069e-002  1.8097073e+002  2.5310069e-002  2.5352543e-002 
 6.6875196e-001  6.2499950e-003 -1.9952499e-003 -1.3301586e-003  2.3979875e-003  2.4818961e-002  1.8114856e+002  2.4818961e-002  2.4821837e-002 
 6.8125200e-001  6.2499950e-003  4.7277338e-003 -1.1537602e-003  4.8664804e-003  2.4033744e-002  1.8132455e+002  2.4033744e-002  2.4045585e-002 
 6.9375205e-001  6.2499950e-003  1.0779368e-002 -9.0293691e-004  1.0817119e-002  2.3003146e-002  1.8149736e+002  2.3003146e-002  2.3061652e-002 
 7.0625210e-001  6.2499950e-003  1.5962997e-002 -5.9188029e-004  1.5973967e-002  2.1792147e-002  1.8166530e+002  2.1792147e-002  2.1919731e-002 
 7.1875215e-001  6.2499950e-003  2.0080296e-002 -2.4326192e-004  2.0081770e-002  2.0473057e-002  1.8182681e+002  2.0473057e-002  2.0674696e-002 
 7.3125219e-001  6.2499950e-003  2.3036901e-002  9.5062220e-005  2.3037096e-002  1.9116811e-002  1.8198091e+002  1.9116811e-002  1.9382166e-002 
 7.4375224e-001  6.2499950e-003  2.4828563e-002  3.7514247e-004  2.4831396e-002  1.7789809e-002  1.8212669e+002  1.7789809e-002  1.8098108e-002 
 7.5625229e-001  6.2499950e-003  2.5478402e-002  5.4742704e-004  2.5484283e-002  1.6544944e-002  1.8226358e+002  1.6544944e-002  1.6869668e-002 
 7.6875234e-001  6.2499950e-003  2.5175110e-002  7.2841835e-004  2.5185645e-002  1.5445603e-002  1.8239154e+002  1.5445603e-002  1.5762761e-002 
 7.8125238e-001  6.2499950e-003  2.4063388e-002  8.1411452e-004  2.4077155e-002  1.4497597e-002  1.8251105e+002  1.4497597e-002  1.4787451e-002 
 7.9375243e-001  6.2499950e-003  2.2329316e-002  8.2729763e-004  2.2344636e-002  1.3713541e-002  1.8262366e+002  1.3713541e-002  1.3963182e-002 
 8.0625248e-001  6.2499950e-003  2.0166814e-002  7.8099698e-004  2.0181932e-002  1.3092944e-002  1.8273259e+002  1.3092944e-002  1.3296599e-002 
 8.1875253e-001  6.2499950e-003  1.7774999e-002  6.9772406e-004  1.7788688e-002  1.2621193e-002  1.8284410e+002  1.2621193e-002  1.2779412e-002 
 8.3125257e-001  6.2499950e-003  1.5321937e-002  5.9643603e-004  1.5333542e-002  1.2277479e-002  1.8296890e+002  1.2277479e-002  1.2395038e-002 
 8.4375262e-001  6.2499950e-003  1.2938999e-002  4.8815267e-004  1.2948204e-002  1.2038697e-002  1.8312508e+002  1.2038697e-002  1.2122526e-002 
 8.5625267e-001  6.2499950e-003  1.0715874e-002  3.8959956e-004  1.0722954e-002  1.1881494e-002  1.8334013e+002  1.1881494e-002  1.1938985e-002 
 8.6875272e-001  6.2499950e-003  8.7043568e-003  3.0540806e-004  8.7097129e-003  1.1785427e-002  1.8365204e+002  1.1785427e-002  1.1823357e-002 
 8.8125277e-001  6.2499950e-003  6.9298795e-003  2.3490783e-004  6.9338600e-003  1.1733546e-002  1.8410777e+002  1.1733546e-002  1.1757585e-002 
 8.9375281e-001  6.2499950e-003  5.3979415e-003  1.7787780e-004  5.4008714e-003  1.1712140e-002  1.8475850e+002  1.1712140e-002  1.1726725e-002 
 9.0625286e-001  6.2499950e-003  4.0965849e-003  1.3422447e-004  4.0987832e-003  1.1710571e-002  1.8565181e+002  1.1710571e-002  1.1718971e-002 
 9.1875291e-001  6.2499950e-003  3.0019612e-003  1.0268254e-004  3.0037167e-003  1.1721323e-002  1.8682249e+002  1.1721323e-002  1.1725835e-002 
 9.3125296e-001  6.2499950e-003  2.0863353e-003  8.0773847e-005  2.0878983e-003  1.1739603e-002  1.8828423e+002  1.1739603e-002  1.1741783e-002 
 9.4375300e-001  6.2499950e-003  1.3263908e-003  6.4599204e-005  1.3279630e-003  1.1762771e-002  1.9002477e+002  1.1762771e-002  1.1763653e-002 
 9.5625305e-001  6.2499950e-003  7.1214302e-004  4.7505120e-005  7.1372575e-004  1.1789633e-002  1.9200671e+002  1.1789633e-002  1.1789887e-002 
 9.6875310e-001  6.2499950e-003  2.5373098e-004  1.9774730e-005  2.5450040e-004  1.1818910e-002  1.9417410e+002  1.1818910e-002  1.1818943e-002 
 9.8125315e-001  6.2499950e-003 -2.1260701e-005 -2.8584347e-005  3.5624180e-005  1.1847266e-002  1.9646359e+002  1.1847266e-002  1.1847267e-002 
 9.9375159e-001  6.2499950e-003 -7.4638025e-005 -7.6175354e-005  1.0664670e-004  1.1871209e-002  1.9881657e+002  1.1871209e-002  1.1871215e-002 
 1.0000000e+000  6.2499950e-003  0.0000000e+000  0.0000000e+000  0.0000000e+000  1.1883180e-002  2.0000000e+002  1.1883180e-002  1.1883180e-002 
 0.0000000e+000  1.8749986e-002  0.0000000e+000  0.0000000e+000  0.0000000e+000  2.1141317e-002  1.0000000e+002  2.1141317e-002  2.1141317e-002 
 6.2499950e-003  1.8749986e-002  2.0834193e-005 -1.0299779e-004  1.0508381e-004  2.1153526e-002  1.0168899e+002  2.1153526e-002  2.1153532e-002 
 1.8749986e-002  1.8749986e-002  5.6497235e-004 -5.8560015e-004  8.1370835e-004  2.1177944e-002  1.0504489e+002  2.1177944e-002  2.1178275e-002 
 3.1249970e-002  1.8749986e-002  1.6586442e-003 -9.7740302e-004  1.9252057e-003  2.1186916e-002  1.0832999e+002  2.1186916e-002  2.1188769e-002 
 4.3749955e-002  1.8749986e-002  3.0718253e-003 -1.1849402e-003  3.2924449e-003  2.1180032e-002  1.1153674e+002  2.1180032e-002  2.1185452e-002 
 5.6249946e-002  1.8749986e-002  4.5961980e-003 -1.2099054e-003  4.7527789e-003  2.1154890e-002  1.1468340e+002  2.1154890e-002  2.1166185e-002 
 6.8749934e-002  1.8749986e-002  6.0466747e-003 -1.0920656e-003  6.1445003e-003  2.1111520e-002  1.1780656e+002  2.1111520e-002  2.1130398e-002 
 8.1249923e-002  1.8749986e-002  7.2826329e-003 -8.8174117e-004  7.3358170e-003  2.1052388e-002  1.2095448e+002  2.1052388e-002  2.1079296e-002 
 9.3749911e-002  1.8749986e-002  8.2235336e-003 -6.3559978e-004  8.2480600e-003  2.0981438e-002  1.2418092e+002  2.0981438e-002  2.1015454e-002 
 1.0624990e-001  1.8749986e-002  8.8481661e-003 -4.0116155e-004  8.8572558e-003  2.0902483e-002  1.2753950e+002  2.0902483e-002  2.0941708e-002 
 1.1874990e-001  1.8749986e-002  9.1816289e-003 -2.1075904e-004  9.1840476e-003  2.0818302e-002  1.3107584e+002  2.0818302e-002  2.0860476e-002 
 1.3124990e-001  1.8749986e-002  9.2758201e-003 -7.6501310e-005  9.2761358e-003  2.0729911e-002  1.3481943e+002  2.0729911e-002  2.0772934e-002 
 1.4374995e-001  1.8749986e-002  9.1861226e-003  8.5541878e-006  9.1861263e-003  2.0636465e-002  1.3877614e+002  2.0636465e-002  2.0678658e-002 
 1.5625000e-001  1.8749986e-002  8.9494595e-003  6.0602790e-005  8.9496644e-003  2.0536538e-002  1.4292220e+002  2.0536538e-002  2.0576587e-002 
 1.6875005e-001  1.8749986e-002  8.5809920e-003  1.0483481e-004  8.5816327e-003  2.0426670e-002  1.4720216e+002  2.0426670e-002  2.0463493e-002 
 1.8125010e-001  1.8749986e-002  8.0636730e-003  1.6560768e-004  8.0653736e-003  2.0303395e-002  1.5153078e+002  2.0303395e-002  2.0335920e-002 
 1.9375014e-001  1.8749986e-002  7.3512611e-003  2.6348917e-004  7.3559815e-003  2.0162875e-002  1.5579788e+002  2.0162875e-002  2.0189930e-002 
 2.0625019e-001  1.8749986e-002  6.3791168e-003  4.1220043e-004  6.3924207e-003  2.0001519e-002  1.5988042e+002  2.0001519e-002  2.0021951e-002 
 2.1875025e-001  1.8749986e-002  5.0677527e-003  6.1807502e-004  5.1053045e-003  1.9816369e-002  1.6365657e+002  1.9816369e-002  1.9829402e-002 
 2.3125030e-001  1.8749986e-002  3.3327076e-003  8.8363228e-004  3.4478609e-003  1.9604472e-002  1.6701918e+002  1.9604472e-002  1.9610416e-002 
 2.4375033e-001  1.8749986e-002  1.0895119e-003  1.2093615e-003  1.6277565e-003  1.9363096e-002  1.6988971e+002  1.9363096e-002  1.9364420e-002 
 2.5625038e-001  1.8749986e-002 -1.7486940e-003  1.5957413e-003  2.3673447e-003  1.9089542e-002  1.7222935e+002  1.9089542e-002  1.9092344e-002 
 2.6875046e-001  1.8749986e-002 -5.2611195e-003  2.0436579e-003  5.6441044e-003  1.8781310e-002  1.7404109e+002  1.8781310e-002  1.8797237e-002 
 2.8125051e-001  1.8749986e-002 -9.5209610e-003  2.5519531e-003  9.8570362e-003  1.8436588e-002  1.7537112e+002  1.8436588e-002  1.8485170e-002 
 2.9375049e-001  1.8749986e-002 -1.4588092e-002  3.1168682e-003  1.4917349e-002  1.8054420e-002  1.7629538e+002  1.8054420e-002  1.8165683e-002 
 3.0625054e-001  1.8749986e-002 -2.0503150e-002  3.7303604e-003  2.0839740e-002  1.7635176e-002  1.7690504e+002  1.7635176e-002  1.7852323e-002 
 3.1875062e-001  1.8749986e-002 -2.7279813e-002  4.3792124e-003  2.7629074e-002  1.7181074e-002  1.7729123e+002  1.7181074e-002  1.7562756e-002 
 3.3125067e-001  1.8749986e-002 -3.4898173e-002  5.0461395e-003  3.5261113e-002  1.6696488e-002  1.7753227e+002  1.6696488e-002  1.7318161e-002 
 3.4375072e-001  1.8749986e-002 -4.3299235e-002  5.7068435e-003  4.3673698e-002  1.6188616e-002  1.7768674e+002  1.6188616e-002  1.7142313e-002 
 3.5625076e-001  1.8749986e-002 -5.2382249e-002  6.3368971e-003  5.2764159e-002  1.5667493e-002  1.7779541e+002  1.5667493e-002  1.7059520e-002 
 3.6875081e-001  1.8749986e-002 -6.2007029e-002  6.9095278e-003  6.2390812e-002  1.5146363e-002  1.7788231e+002  1.5146363e-002  1.7092669e-002 
 3.8125086e-001  1.8749986e-002 -7.1998760e-002  7.3893224e-003  7.2376952e-002  1.4641339e-002  1.7796072e+002  1.4641339e-002  1.7260551e-002 
 3.9375091e-001  1.8749986e-002 -8.2140744e-002  7.7434918e-003  8.2504928e-002  1.4171498e-002  1.7803714e+002  1.4171498e-002  1.7575029e-002 
 4.0625095e-001  1.8749986e-002 -9.2199348e-002  7.9486975e-003  9.2541352e-002  1.3757263e-002  1.7811464e+002  1.3757263e-002  1.8039213e-002 
 4.1875100e-001  1.8749986e-002 -1.0194657e-001  7.9706283e-003  1.0225768e-001  1.3424605e-002  1.7819479e+002  1.3424605e-002  1.8652922e-002 
 4.3125105e-001  1.8749986e-002 -1.1112268e-001  7.7948174e-003  1.1139573e-001  1.3194323e-002  1.7827838e+002  1.3194323e-002  1.9398827e-002 
 4.4375110e-001  1.8749986e-002 -1.1948236e-001  7.4020890e-003  1.1971143e-001  1.3090132e-002  1.7836595e+002  1.3090132e-002  2.0255545e-002 
 4.5625114e-001  1.8749986e-002 -1.2680247e-001  6.7971414e-003  1.2698452e-001  1.3133565e-002  1.7845807e+002  1.3133565e-002  2.1196099e-002 
 4.6875119e-001  1.8749986e-002 -1.3289668e-001  5.9773959e-003  1.3303104e-001  1.3341277e-002  1.7855531e+002  1.3341277e-002  2.2189904e-002 
 4.8125124e-001  1.8749986e-002 -1.3758890e-001  4.9288007e-003  1.3767716e-001  1.3725801e-002  1.7865836e+002  1.3725801e-002  2.3203300e-002 
 4.9375129e-001  1.8749986e-002 -1.4070964e-001  3.6494408e-003  1.4075695e-001  1.4296486e-002  1.7876776e+002  1.4296486e-002  2.4202747e-002 