Variables = "x","y", "Velocity_x", "Velocity_y", "Velocity_whole value", "Pressure", "Absolute pressure", "Total pressure"
Zone i=82, j=82
 0.0000000e+000  0.0000000e+000  0.0000000e+000  0.0000000e+000  0.0000000e+000 -1.4843310e-002 -1.4843310e-002 -1.4843310e-002 
 6.2499950e-003  0.0000000e+000  0.0000000e+000  0.0000000e+000  0.0000000e+000 -1.4843217e-002 -1.4843217e-002 -1.4843217e-002 
 1.8749986e-002  0.0000000e+000  0.0000000e+000  0.0000000e+000  0.0000000e+000 -1.4843032e-002 -1.4843032e-002 -1.4843032e-002 
 3.1249970e-002  0.0000000e+000  0.0000000e+000  0.0000000e+000  0.0000000e+000 -1.4912302e-002 -1.4912302e-002 -1.4912302e-002 
 4.3749955e-002  0.0000000e+000  0.0000000e+000  0.0000000e+000  0.0000000e+000 -1.5046606e-002 -1.5046606e-002 -1.5046606e-002 
 5.6249946e-002  0.0000000e+000  0.0000000e+000  0.0000000e+000  0.0000000e+000 -1.5230947e-002 -1.5230947e-002 -1.5230947e-002 
 6.8749934e-002  0.0000000e+000  0.0000000e+000  0.0000000e+000  0.0000000e+000 -1.5446885e-002 -1.5446885e-002 -1.5446885e-002 
 8.1249923e-002  0.0000000e+000  0.0000000e+000  0.0000000e+000  0.0000000e+000 -1.5681736e-002 -1.5681736e-002 -1.5681736e-002 
 9.3749911e-002  0.0000000e+000  0.0000000e+000  0.0000000e+000  0.0000000e+000 -1.5924674e-002 -1.5924674e-002 -1.5924674e-002 
 1.0624990e-001  0.0000000e+000  0.0000000e+000  0.0000000e+000  0.0000000e+000 -1.6166888e-002 -1.6166888e-002 -1.6166888e-002 
 1.1874990e-001  0.0000000e+000  0.0000000e+000  0.0000000e+000  0.0000000e+000 -1.6401507e-002 -1.6401507e-002 -1.6401507e-002 
 1.3124990e-001  0.0000000e+000  0.0000000e+000  0.0000000e+000  0.0000000e+000 -1.6623214e-002 -1.6623214e-002 -1.6623214e-002 
 1.4374995e-001  0.0000000e+000  0.0000000e+000  0.0000000e+000  0.0000000e+000 -1.6827984e-002 -1.6827984e-002 -1.6827984e-002 
 1.5625000e-001  0.0000000e+000  0.0000000e+000  0.0000000e+000  0.0000000e+000 -1.7012786e-002 -1.7012786e-002 -1.7012786e-002 
 1.6875005e-001  0.0000000e+000  0.0000000e+000  0.0000000e+000  0.0000000e+000 -1.7175399e-002 -1.7175399e-002 -1.7175399e-002 
 1.8125010e-001  0.0000000e+000  0.0000000e+000  0.0000000e+000  0.0000000e+000 -1.7314207e-002 -1.7314207e-002 -1.7314207e-002 
 1.9375014e-001  0.0000000e+000  0.0000000e+000  0.0000000e+000  0.0000000e+000 -1.7428081e-002 -1.7428081e-002 -1.7428081e-002 
 2.0625019e-001  0.0000000e+000  0.0000000e+000  0.0000000e+000  0.0000000e+000 -1.7516255e-002 -1.7516255e-002 -1.7516255e-002 
 2.1875025e-001  0.0000000e+000  0.0000000e+000  0.0000000e+000  0.0000000e+000 -1.7578211e-002 -1.7578211e-002 -1.7578211e-002 
 2.3125030e-001  0.0000000e+000  0.0000000e+000  0.0000000e+000  0.0000000e+000 -1.7613642e-002 -1.7613642e-002 -1.7613642e-002 
 2.4375033e-001  0.0000000e+000  0.0000000e+000  0.0000000e+000  0.0000000e+000 -1.7622359e-002 -1.7622359e-002 -1.7622359e-002 
 2.5625038e-001  0.0000000e+000  0.0000000e+000  0.0000000e+000  0.0000000e+000 -1.7604277e-002 -1.7604277e-002 -1.7604277e-002 
 2.6875046e-001  0.0000000e+000  0.0000000e+000  0.0000000e+000  0.0000000e+000 -1.7559290e-002 -1.7559290e-002 -1.7559290e-002 
 2.8125051e-001  0.0000000e+000  0.0000000e+000  0.0000000e+000  0.0000000e+000 -1.7487336e-002 -1.7487336e-002 -1.7487336e-002 
 2.9375049e-001  0.0000000e+000  0.0000000e+000  0.0000000e+000  0.0000000e+000 -1.7388396e-002 -1.7388396e-002 -1.7388396e-002 
 3.0625054e-001  0.0000000e+000  0.0000000e+000  0.0000000e+000  0.0000000e+000 -1.7262500e-002 -1.7262500e-002 -1.7262500e-002 
 3.1875062e-001  0.0000000e+000  0.0000000e+000  0.0000000e+000  0.0000000e+000 -1.7109707e-002 -1.7109707e-002 -1.7109707e-002 
 3.3125067e-001  0.0000000e+000  0.0000000e+000  0.0000000e+000  0.0000000e+000 -1.6930152e-002 -1.6930152e-002 -1.6930152e-002 
 3.4375072e-001  0.0000000e+000  0.0000000e+000  0.0000000e+000  0.0000000e+000 -1.6724031e-002 -1.6724031e-002 -1.6724031e-002 
 3.5625076e-001  0.0000000e+000  0.0000000e+000  0.0000000e+000  0.0000000e+000 -1.6491638e-002 -1.6491638e-002 -1.6491638e-002 
 3.6875081e-001  0.0000000e+000  0.0000000e+000  0.0000000e+000  0.0000000e+000 -1.6233392e-002 -1.6233392e-002 -1.6233392e-002 
 3.8125086e-001  0.0000000e+000  0.0000000e+000  0.0000000e+000  0.0000000e+000 -1.5949849e-002 -1.5949849e-002 -1.5949849e-002 
 3.9375091e-001  0.0000000e+000  0.0000000e+000  0.0000000e+000  0.0000000e+000 -1.5641725e-002 -1.5641725e-002 -1.5641725e-002 
 4.0625095e-001  0.0000000e+000  0.0000000e+000  0.0000000e+000  0.0000000e+000 -1.5309931e-002 -1.5309931e-002 -1.5309931e-002 
 4.1875100e-001  0.0000000e+000  0.0000000e+000  0.0000000e+000  0.0000000e+000 -1.4955586e-002 -1.4955586e-002 -1.4955586e-002 
 4.3125105e-001  0.0000000e+000  0.0000000e+000  0.0000000e+000  0.0000000e+000 -1.4580043e-002 -1.4580043e-002 -1.4580043e-002 
 4.4375110e-001  0.0000000e+000  0.0000000e+000  0.0000000e+000  0.0000000e+000 -1.4184892e-002 -1.4184892e-002 -1.4184892e-002 
 4.5625114e-001  0.0000000e+000  0.0000000e+000  0.0000000e+000  0.0000000e+000 -1.3771993e-002 -1.3771993e-002 -1.3771993e-002 
 4.6875119e-001  0.0000000e+000  0.0000000e+000  0.0000000e+000  0.0000000e+000 -1.3343459e-002 -1.3343459e-002 -1.3343459e-002 
 4.8125124e-001  0.0000000e+000  0.0000000e+000  0.0000000e+000  0.0000000e+000 -1.2901656e-002 -1.2901656e-002 -1.2901656e-002 
 4.9375129e-001  0.0000000e+000  0.0000000e+000  0.0000000e+000  0.0000000e+000 -1.2449279e-002 -1.2449279e-002 -1.2449279e-002 
 5.0625134e-001  0.0000000e+000  0.0000000e+000  0.0000000e+000  0.0000000e+000 -1.1989638e-002 -1.1989638e-002 -1.1989638e-002 
 5.1875138e-001  0.0000000e+000  0.0000000e+000  0.0000000e+000  0.0000000e+000 -1.1526253e-002 -1.1526253e-002 -1.1526253e-002 
 5.3125143e-001  0.0000000e+000  0.0000000e+000  0.0000000e+000  0.0000000e+000 -1.1062514e-002 -1.1062514e-002 -1.1062514e-002 
 5.4375148e-001  0.0000000e+000  0.0000000e+000  0.0000000e+000  0.0000000e+000 -1.0601981e-002 -1.0601981e-002 -1.0601981e-002 
 5.5625153e-001  0.0000000e+000  0.0000000e+000  0.0000000e+000  0.0000000e+000 -1.0148400e-002 -1.0148400e-002 -1.0148400e-002 
 5.6875157e-001  0.0000000e+000  0.0000000e+000  0.0000000e+000  0.0000000e+000 -9.7056152e-003 -9.7056152e-003 -9.7056152e-003 
 5.8125162e-001  0.0000000e+000  0.0000000e+000  0.0000000e+000  0.0000000e+000 -9.2775356e-003 -9.2775356e-003 -9.2775356e-003 
 5.9375167e-001  0.0000000e+000  0.0000000e+000  0.0000000e+000  0.0000000e+000 -8.8680778e-003 -8.8680778e-003 -8.8680778e-003 
 6.0625172e-001  0.0000000e+000  0.0000000e+000  0.0000000e+000  0.0000000e+000 -8.4810946e-003 -8.4810946e-003 -8.4810946e-003 
 6.1875176e-001  0.0000000e+000  0.0000000e+000  0.0000000e+000  0.0000000e+000 -8.1203366e-003 -8.1203366e-003 -8.1203366e-003 
 6.3125181e-001  0.0000000e+000  0.0000000e+000  0.0000000e+000  0.0000000e+000 -7.7893757e-003 -7.7893757e-003 -7.7893757e-003 
 6.4375186e-001  0.0000000e+000  0.0000000e+000  0.0000000e+000  0.0000000e+000 -7.4915304e-003 -7.4915304e-003 -7.4915304e-003 
 6.5625191e-001  0.0000000e+000  0.0000000e+000  0.0000000e+000  0.0000000e+000 -7.2298218e-003 -7.2298218e-003 -7.2298218e-003 
 6.6875196e-001  0.0000000e+000  0.0000000e+000  0.0000000e+000  0.0000000e+000 -7.0068976e-003 -7.0068976e-003 -7.0068976e-003 
 6.8125200e-001  0.0000000e+000  0.0000000e+000  0.0000000e+000  0.0000000e+000 -6.8249777e-003 -6.8249777e-003 -6.8249777e-003 
 6.9375205e-001  0.0000000e+000  0.0000000e+000  0.0000000e+000  0.0000000e+000 -6.6857971e-003 -6.6857971e-003 -6.6857971e-003 
 7.0625210e-001  0.0000000e+000  0.0000000e+000  0.0000000e+000  0.0000000e+000 -6.5905526e-003 -6.5905526e-003 -6.5905526e-003 
 7.1875215e-001  0.0000000e+000  0.0000000e+000  0.0000000e+000  0.0000000e+000 -6.5398496e-003 -6.5398496e-003 -6.5398496e-003 
 7.3125219e-001  0.0000000e+000  0.0000000e+000  0.0000000e+000  0.0000000e+000 -6.5337662e-003 -6.5337662e-003 -6.5337662e-003 
 7.4375224e-001  0.0000000e+000  0.0000000e+000  0.0000000e+000  0.0000000e+000 -6.5718452e-003 -6.5718452e-003 -6.5718452e-003 
 7.5625229e-001  0.0000000e+000  0.0000000e+000  0.0000000e+000  0.0000000e+000 -6.6529745e-003 -6.6529745e-003 -6.6529745e-003 
 7.6875234e-001  0.0000000e+000  0.0000000e+000  0.0000000e+000  0.0000000e+000 -6.7753643e-003 -6.7753643e-003 -6.7753643e-003 
 7.8125238e-001  0.0000000e+000  0.0000000e+000  0.0000000e+000  0.0000000e+000 -6.9365720e-003 -6.9365720e-003 -6.9365720e-003 
 7.9375243e-001  0.0000000e+000  0.0000000e+000  0.0000000e+000  0.0000000e+000 -7.1334997e-003 -7.1334997e-003 -7.1334997e-003 
 8.0625248e-001  0.0000000e+000  0.0000000e+000  0.0000000e+000  0.0000000e+000 -7.3624244e-003 -7.3624244e-003 -7.3624244e-003 
 8.1875253e-001  0.0000000e+000  0.0000000e+000  0.0000000e+000  0.0000000e+000 -7.6190056e-003 -7.6190056e-003 -7.6190056e-003 
 8.3125257e-001  0.0000000e+000  0.0000000e+000  0.0000000e+000  0.0000000e+000 -7.8983232e-003 -7.8983232e-003 -7.8983232e-003 
 8.4375262e-001  0.0000000e+000  0.0000000e+000  0.0000000e+000  0.0000000e+000 -8.1949048e-003 -8.1949048e-003 -8.1949048e-003 
 8.5625267e-001  0.0000000e+000  0.0000000e+000  0.0000000e+000  0.0000000e+000 -8.5027460e-003 -8.5027460e-003 -8.5027460e-003 
 8.6875272e-001  0.0000000e+000  0.0000000e+000  0.0000000e+000  0.0000000e+000 -8.8153360e-003 -8.8153360e-003 -8.8153360e-003 
 8.8125277e-001  0.0000000e+000  0.0000000e+000  0.0000000e+000  0.0000000e+000 -9.1256732e-003 -9.1256732e-003 -9.1256732e-003 
 8.9375281e-001  0.0000000e+000  0.0000000e+000  0.0000000e+000  0.0000000e+000 -9.4262939e-003 -9.4262939e-003 -9.4262939e-003 
 9.0625286e-001  0.0000000e+000  0.0000000e+000  0.0000000e+000  0.0000000e+000 -9.7096544e-003 -9.7096544e-003 -9.7096544e-003 
 9.1875291e-001  0.0000000e+000  0.0000000e+000  0.0000000e+000  0.0000000e+000 -9.9685341e-003 -9.9685341e-003 -9.9685341e-003 
 9.3125296e-001  0.0000000e+000  0.0000000e+000  0.0000000e+000  0.0000000e+000 -1.0188924e-002 -1.0188924e-002 -1.0188924e-002 
 9.4375300e-001  0.0000000e+000  0.0000000e+000  0.0000000e+000  0.0000000e+000 -1.0367289e-002 -1.0367289e-002 -1.0367289e-002 
 9.5625305e-001  0.0000000e+000  0.0000000e+000  0.0000000e+000  0.0000000e+000 -1.0494366e-002 -1.0494366e-002 -1.0494366e-002 
 9.6875310e-001  0.0000000e+000  0.0000000e+000  0.0000000e+000  0.0000000e+000 -1.0563993e-002 -1.0563993e-002 -1.0563993e-002 
 9.8125315e-001  0.0000000e+000  0.0000000e+000  0.0000000e+000  0.0000000e+000 -1.0575367e-002 -1.0575367e-002 -1.0575367e-002 
 9.9375159e-001  0.0000000e+000  0.0000000e+000  0.0000000e+000  0.0000000e+000 -1.0541077e-002 -1.0541077e-002 -1.0541077e-002 
 1.0000000e+000  0.0000000e+000  0.0000000e+000  0.0000000e+000  0.0000000e+000 -1.0523934e-002 -1.0523934e-002 -1.0523934e-002 
 0.0000000e+000  6.2499950e-003  0.0000000e+000  0.0000000e+000  0.0000000e+000 -1.4843389e-002 -1.4843389e-002 -1.4843389e-002 
 6.2499950e-003  6.2499950e-003  5.2866508e-006 -5.2823843e-006  7.4734371e-006 -1.4843301e-002 -1.4843301e-002 -1.4843301e-002 
 1.8749986e-002  6.2499950e-003  2.6695770e-005 -1.0916649e-005  2.8841590e-005 -1.4843130e-002 -1.4843130e-002 -1.4843130e-002 
 3.1249970e-002  6.2499950e-003  5.1980143e-005 -9.9916033e-006  5.2931726e-005 -1.4908213e-002 -1.4908213e-002 -1.4908211e-002 
 4.3749955e-002  6.2499950e-003  6.5502434e-005 -6.7944625e-006  6.5853877e-005 -1.5032511e-002 -1.5032511e-002 -1.5032509e-002 
 5.6249946e-002  6.2499950e-003  5.9875812e-005 -3.3247738e-006  5.9968050e-005 -1.5201322e-002 -1.5201322e-002 -1.5201320e-002 
 6.8749934e-002  6.2499950e-003  3.2516851e-005  1.7070306e-007  3.2517299e-005 -1.5399641e-002 -1.5399641e-002 -1.5399640e-002 
 8.1249923e-002  6.2499950e-003 -1.6920250e-005  3.4000682e-006  1.7258486e-005 -1.5616057e-002 -1.5616057e-002 -1.5616057e-002 
 9.3749911e-002  6.2499950e-003 -8.7711764e-005  6.2516592e-006  8.7934277e-005 -1.5840717e-002 -1.5840717e-002 -1.5840713e-002 
 1.0624990e-001  6.2499950e-003 -1.7847556e-004  8.7173476e-006  1.7868832e-004 -1.6065503e-002 -1.6065503e-002 -1.6065486e-002 
 1.1874990e-001  6.2499950e-003 -2.8747472e-004  1.0821684e-005  2.8767833e-004 -1.6283955e-002 -1.6283955e-002 -1.6283914e-002 
 1.3124990e-001  6.2499950e-003 -4.1281566e-004  1.2598685e-005  4.1300786e-004 -1.6491005e-002 -1.6491005e-002 -1.6490920e-002 
 1.4374995e-001  6.2499950e-003 -5.5256725e-004  1.4083376e-005  5.5274670e-004 -1.6682731e-002 -1.6682731e-002 -1.6682578e-002 
 1.5625000e-001  6.2499950e-003 -7.0483016e-004  1.5309326e-005  7.0499640e-004 -1.6856140e-002 -1.6856140e-002 -1.6855892e-002 
 1.6875005e-001  6.2499950e-003 -8.6778216e-004  1.6308655e-005  8.6793542e-004 -1.7008983e-002 -1.7008983e-002 -1.7008606e-002 
 1.8125010e-001  6.2499950e-003 -1.0396997e-003  1.7109262e-005  1.0398404e-003 -1.7139597e-002 -1.7139597e-002 -1.7139057e-002 
 1.9375014e-001  6.2499950e-003 -1.2189688e-003  1.7737704e-005  1.2190979e-003 -1.7246783e-002 -1.7246783e-002 -1.7246040e-002 
 2.0625019e-001  6.2499950e-003 -1.4040867e-003  1.8214563e-005  1.4042049e-003 -1.7329693e-002 -1.7329693e-002 -1.7328708e-002 
 2.1875025e-001  6.2499950e-003 -1.5936582e-003  1.8559947e-005  1.5937663e-003 -1.7387737e-002 -1.7387737e-002 -1.7386466e-002 
 2.3125030e-001  6.2499950e-003 -1.7863835e-003  1.8787083e-005  1.7864823e-003 -1.7420523e-002 -1.7420523e-002 -1.7418927e-002 
 2.4375033e-001  6.2499950e-003 -1.9810507e-003  1.8911858e-005  1.9811410e-003 -1.7427802e-002 -1.7427802e-002 -1.7425839e-002 
 2.5625038e-001  6.2499950e-003 -2.1765351e-003  1.8949926e-005  2.1766175e-003 -1.7409435e-002 -1.7409435e-002 -1.7407065e-002 
 2.6875046e-001  6.2499950e-003 -2.3717654e-003  1.8900804e-005  2.3718406e-003 -1.7365269e-002 -1.7365269e-002 -1.7362457e-002 
 2.8125051e-001  6.2499950e-003 -2.5656959e-003  1.8764187e-005  2.5657646e-003 -1.7295208e-002 -1.7295208e-002 -1.7291917e-002 
 2.9375049e-001  6.2499950e-003 -2.7573062e-003  1.8544699e-005  2.7573686e-003 -1.7199211e-002 -1.7199211e-002 -1.7195409e-002 
 3.0625054e-001  6.2499950e-003 -2.9455961e-003  1.8240704e-005  2.9456527e-003 -1.7077288e-002 -1.7077288e-002 -1.7072950e-002 
 3.1875062e-001  6.2499950e-003 -3.1295726e-003  1.7851178e-005  3.1296236e-003 -1.6929492e-002 -1.6929492e-002 -1.6924595e-002 
 3.3125067e-001  6.2499950e-003 -3.3082440e-003  1.7373573e-005  3.3082897e-003 -1.6755948e-002 -1.6755948e-002 -1.6750475e-002 
 3.4375072e-001  6.2499950e-003 -3.4806160e-003  1.6806165e-005  3.4806565e-003 -1.6556853e-002 -1.6556853e-002 -1.6550796e-002 
 3.5625076e-001  6.2499950e-003 -3.6456890e-003  1.6144388e-005  3.6457248e-003 -1.6332500e-002 -1.6332500e-002 -1.6325854e-002 
 3.6875081e-001  6.2499950e-003 -3.8024539e-003  1.5383503e-005  3.8024851e-003 -1.6083302e-002 -1.6083302e-002 -1.6076073e-002 
 3.8125086e-001  6.2499950e-003 -3.9498978e-003  1.4520952e-005  3.9499244e-003 -1.5809810e-002 -1.5809810e-002 -1.5802009e-002 
 3.9375091e-001  6.2499950e-003 -4.0870029e-003  1.3552724e-005  4.0870253e-003 -1.5512732e-002 -1.5512732e-002 -1.5504380e-002 
 4.0625095e-001  6.2499950e-003 -4.2127566e-003  1.2477113e-005  4.2127753e-003 -1.5192965e-002 -1.5192965e-002 -1.5184091e-002 
 4.1875100e-001  6.2499950e-003 -4.3261573e-003  1.1291976e-005  4.3261722e-003 -1.4851605e-002 -1.4851605e-002 -1.4842247e-002 
 4.3125105e-001  6.2499950e-003 -4.4262209e-003  9.9968011e-006  4.4262321e-003 -1.4489968e-002 -1.4489968e-002 -1.4480173e-002 
 4.4375110e-001  6.2499950e-003 -4.5119943e-003  8.5930187e-006  4.5120027e-003 -1.4109607e-002 -1.4109607e-002 -1.4099427e-002 
 4.5625114e-001  6.2499950e-003 -4.5825676e-003  7.0832398e-006  4.5825732e-003 -1.3712325e-002 -1.3712325e-002 -1.3701825e-002 
 4.6875119e-001  6.2499950e-003 -4.6370868e-003  5.4719826e-006  4.6370900e-003 -1.3300181e-002 -1.3300181e-002 -1.3289430e-002 
 4.8125124e-001  6.2499950e-003 -4.6747527e-003  3.7565496e-006  4.6747541e-003 -1.2875456e-002 -1.2875456e-002 -1.2864530e-002 
 4.9375129e-001  6.2499950e-003 -4.6947878e-003  1.9022824e-006  4.6947883e-003 -1.2440658e-002 -1.2440658e-002 -1.2429638e-002 
 5.0625134e-001  6.2499950e-003 -4.6965959e-003 -2.1039741e-008  4.6965959e-003 -1.1999036e-002 -1.1999036e-002 -1.1988007e-002 
 5.1875138e-001  6.2499950e-003 -4.6797749e-003 -1.9514139e-006  4.6797753e-003 -1.1554032e-002 -1.1554032e-002 -1.1543081e-002 
 5.3125143e-001  6.2499950e-003 -4.6441080e-003 -3.9233896e-006  4.6441099e-003 -1.1108804e-002 -1.1108804e-002 -1.1098020e-002 
 5.4375148e-001  6.2499950e-003 -4.5894640e-003 -5.9220492e-006  4.5894678e-003 -1.0666768e-002 -1.0666768e-002 -1.0656237e-002 
 5.5625153e-001  6.2499950e-003 -4.5158695e-003 -7.9276433e-006  4.5158765e-003 -1.0231518e-002 -1.0231518e-002 -1.0221322e-002 
 5.6875157e-001  6.2499950e-003 -4.4235252e-003 -9.9185281e-006  4.4235364e-003 -9.8067317e-003 -9.8067317e-003 -9.7969482e-003 
 5.8125162e-001  6.2499950e-003 -4.3128179e-003 -1.1872939e-005  4.3128342e-003 -9.3961414e-003 -9.3961414e-003 -9.3868412e-003 
 5.9375167e-001  6.2499950e-003 -4.1843243e-003 -1.3768708e-005  4.1843471e-003 -9.0034809e-003 -9.0034809e-003 -8.9947265e-003 
 6.0625172e-001  6.2499950e-003 -4.0388159e-003 -1.5579983e-005  4.0388461e-003 -8.6324243e-003 -8.6324243e-003 -8.6242678e-003 
 6.1875176e-001  6.2499950e-003 -3.8772614e-003 -1.7284143e-005  3.8772998e-003 -8.2865376e-003 -8.2865376e-003 -8.2790209e-003 
 6.3125181e-001  6.2499950e-003 -3.7008247e-003 -1.8856197e-005  3.7008727e-003 -7.9692136e-003 -7.9692136e-003 -7.9623656e-003 
 6.4375186e-001  6.2499950e-003 -3.5108605e-003 -2.0273274e-005  3.5109189e-003 -7.6836036e-003 -7.6836036e-003 -7.6774401e-003 
 6.5625191e-001  6.2499950e-003 -3.3089039e-003 -2.1512060e-005  3.3089737e-003 -7.4325665e-003 -7.4325665e-003 -7.4270917e-003 
 6.6875196e-001  6.2499950e-003 -3.0966604e-003 -2.2552862e-005  3.0967426e-003 -7.2186035e-003 -7.2186035e-003 -7.2138086e-003 
 6.8125200e-001  6.2499950e-003 -2.8759877e-003 -2.3375191e-005  2.8760827e-003 -7.0438050e-003 -7.0438050e-003 -7.0396690e-003 
 6.9375205e-001  6.2499950e-003 -2.6488805e-003 -2.3963334e-005  2.6489890e-003 -6.9097974e-003 -6.9097974e-003 -6.9062887e-003 
 7.0625210e-001  6.2499950e-003 -2.4174440e-003 -2.4302917e-005  2.4175663e-003 -6.8176952e-003 -6.8176952e-003 -6.8147727e-003 
 7.1875215e-001  6.2499950e-003 -2.1838525e-003 -2.4395327e-005  2.1839887e-003 -6.7680310e-003 -6.7680310e-003 -6.7656459e-003 
 7.3125219e-001  6.2499950e-003 -1.9503249e-003 -2.4236240e-005  1.9504755e-003 -6.7608347e-003 -6.7608347e-003 -6.7589325e-003 
 7.4375224e-001  6.2499950e-003 -1.7191303e-003 -2.3807625e-005  1.7192952e-003 -6.7956438e-003 -6.7956438e-003 -6.7941658e-003 
 7.5625229e-001  6.2499950e-003 -1.4925728e-003 -2.3105888e-005  1.4927516e-003 -6.8713478e-003 -6.8713478e-003 -6.8702335e-003 
 7.6875234e-001  6.2499950e-003 -1.2729394e-003 -2.2136146e-005  1.2731318e-003 -6.9861910e-003 -6.9861910e-003 -6.9853808e-003 
 7.8125238e-001  6.2499950e-003 -1.0624623e-003 -2.0903684e-005  1.0626679e-003 -7.1378010e-003 -7.1378010e-003 -7.1372362e-003 
 7.9375243e-001  6.2499950e-003 -8.6328870e-004 -1.9420100e-005  8.6350710e-004 -7.3231813e-003 -7.3231813e-003 -7.3228083e-003 
 8.0625248e-001  6.2499950e-003 -6.7744567e-004 -1.7697897e-005  6.7767681e-004 -7.5387433e-003 -7.5387433e-003 -7.5385137e-003 
 8.1875253e-001  6.2499950e-003 -5.0680764e-004 -1.5755455e-005  5.0705246e-004 -7.7803168e-003 -7.7803168e-003 -7.7801882e-003 
 8.3125257e-001  6.2499950e-003 -3.5306261e-004 -1.3610864e-005  3.5332487e-004 -8.0431849e-003 -8.0431849e-003 -8.0431225e-003 
 8.4375262e-001  6.2499950e-003 -2.1768003e-004 -1.1287974e-005  2.1797251e-004 -8.3221141e-003 -8.3221141e-003 -8.3220899e-003 
 8.5625267e-001  6.2499950e-003 -1.0187291e-004 -8.8113484e-006  1.0225326e-004 -8.6113820e-003 -8.6113820e-003 -8.6113764e-003 
 8.6875272e-001  6.2499950e-003 -6.5626382e-006 -6.2081399e-006  9.0337826e-006 -8.9048073e-003 -8.9048073e-003 -8.9048073e-003 
 8.8125277e-001  6.2499950e-003  6.7670349e-005 -3.5112419e-006  6.7761386e-005 -9.1957720e-003 -9.1957720e-003 -9.1957701e-003 
 8.9375281e-001  6.2499950e-003  1.2064990e-004 -7.6607358e-007  1.2065233e-004 -9.4772717e-003 -9.4772717e-003 -9.4772642e-003 
 9.0625286e-001  6.2499950e-003  1.5266000e-004  1.9164140e-006  1.5267203e-004 -9.7421408e-003 -9.7421408e-003 -9.7421287e-003 
 9.1875291e-001  6.2499950e-003  1.6440645e-004  4.3789887e-006  1.6446476e-004 -9.9832555e-003 -9.9832555e-003 -9.9832416e-003 
 9.3125296e-001  6.2499950e-003  1.5758339e-004  7.1744248e-006  1.5774662e-004 -1.0189935e-002 -1.0189935e-002 -1.0189923e-002 
 9.4375300e-001  6.2499950e-003  1.3488447e-004  9.4217012e-006  1.3521312e-004 -1.0357070e-002 -1.0357070e-002 -1.0357060e-002 
 9.5625305e-001  6.2499950e-003  1.0011866e-004  1.0815715e-005  1.0070117e-004 -1.0477036e-002 -1.0477036e-002 -1.0477032e-002 
 9.6875310e-001  6.2499950e-003  5.9118440e-005  1.0719044e-005  6.0082340e-005 -1.0544775e-002 -1.0544775e-002 -1.0544773e-002 
 9.8125315e-001  6.2499950e-003  2.0948228e-005  7.7481418e-006  2.2335218e-005 -1.0558360e-002 -1.0558360e-002 -1.0558360e-002 
 9.9375159e-001  6.2499950e-003  9.3499807e-008  1.1395623e-007  1.4740500e-007 -1.0523931e-002 -1.0523931e-002 -1.0523931e-002 
 1.0000000e+000  6.2499950e-003  0.0000000e+000  0.0000000e+000  0.0000000e+000 -1.0506718e-002 -1.0506718e-002 -1.0506718e-002 
 0.0000000e+000  1.8749986e-002  0.0000000e+000  0.0000000e+000  0.0000000e+000 -1.4843548e-002 -1.4843548e-002 -1.4843548e-002 
 6.2499950e-003  1.8749986e-002  1.0984114e-005 -2.6728465e-005  2.8897432e-005 -1.4843474e-002 -1.4843474e-002 -1.4843474e-002 
 1.8749986e-002  1.8749986e-002  4.5950495e-005 -4.5780303e-005  6.4863583e-005 -1.4843334e-002 -1.4843334e-002 -1.4843332e-002 
 3.1249970e-002  1.8749986e-002  7.6039905e-005 -3.3235967e-005  8.2986124e-005 -1.4900042e-002 -1.4900042e-002 -1.4900038e-002 
 4.3749955e-002  1.8749986e-002  7.3725801e-005 -3.1157424e-006  7.3791613e-005 -1.5004328e-002 -1.5004328e-002 -1.5004325e-002 
 5.6249946e-002  1.8749986e-002  2.3803361e-005  3.5352048e-005  4.2618860e-005 -1.5142076e-002 -1.5142076e-002 -1.5142075e-002 
 6.8749934e-002  1.8749986e-002 -8.0626371e-005  7.7012483e-005  1.1149679e-004 -1.5305158e-002 -1.5305158e-002 -1.5305151e-002 
 8.1249923e-002  1.8749986e-002 -2.4190158e-004  1.1868257e-004  2.6944745e-004 -1.5484705e-002 -1.5484705e-002 -1.5484668e-002 
 9.3749911e-002  1.8749986e-002 -4.5924395e-004  1.5850528e-004  4.8582809e-004 -1.5672807e-002 -1.5672807e-002 -1.5672689e-002 
 1.0624990e-001  1.8749986e-002 -7.2991161e-004  1.9544848e-004  7.5562630e-004 -1.5862731e-002 -1.5862731e-002 -1.5862446e-002 
 1.1874990e-001  1.8749986e-002 -1.0499845e-003  2.2897949e-004  1.0746623e-003 -1.6048856e-002 -1.6048856e-002 -1.6048279e-002 
 1.3124990e-001  1.8749986e-002 -1.4148908e-003  2.5887249e-004  1.4383779e-003 -1.6226588e-002 -1.6226588e-002 -1.6225554e-002 
 1.4374995e-001  1.8749986e-002 -1.8197594e-003  2.8509530e-004  1.8419564e-003 -1.6392227e-002 -1.6392227e-002 -1.6390530e-002 
 1.5625000e-001  1.8749986e-002 -2.2596486e-003  3.0773025e-004  2.2805065e-003 -1.6542846e-002 -1.6542846e-002 -1.6540246e-002 
 1.6875005e-001  1.8749986e-002 -2.7296995e-003  3.2693442e-004  2.7492081e-003 -1.6676152e-002 -1.6676152e-002 -1.6672373e-002 
 1.8125010e-001  1.8749986e-002 -3.2252255e-003  3.4289726e-004  3.2434021e-003 -1.6790379e-002 -1.6790379e-002 -1.6785119e-002 
 1.9375014e-001  1.8749986e-002 -3.7417645e-003  3.5582739e-004  3.7586454e-003 -1.6884187e-002 -1.6884187e-002 -1.6877124e-002 
 2.0625019e-001  1.8749986e-002 -4.2751012e-003  3.6592840e-004  4.2907335e-003 -1.6956571e-002 -1.6956571e-002 -1.6947366e-002 
 2.1875025e-001  1.8749986e-002 -4.8212679e-003  3.7339624e-004  4.8357057e-003 -1.7006788e-002 -1.7006788e-002 -1.6995097e-002 
 2.3125030e-001  1.8749986e-002 -5.3765313e-003  3.7840495e-004  5.3898310e-003 -1.7034288e-002 -1.7034288e-002 -1.7019764e-002 
 2.4375033e-001  1.8749986e-002 -5.9373747e-003  3.8111638e-004  5.9495941e-003 -1.7038688e-002 -1.7038688e-002 -1.7020989e-002 
 2.5625038e-001  1.8749986e-002 -6.5004900e-003  3.8167875e-004  6.5116854e-003 -1.7019754e-002 -1.7019754e-002 -1.6998554e-002 
 2.6875046e-001  1.8749986e-002 -7.0627108e-003  3.8015796e-004  7.0729344e-003 -1.6977228e-002 -1.6977228e-002 -1.6952215e-002 
 2.8125051e-001  1.8749986e-002 -7.6209512e-003  3.7660784e-004  7.6302509e-003 -1.6910950e-002 -1.6910950e-002 -1.6881838e-002 
 2.9375049e-001  1.8749986e-002 -8.1722019e-003  3.7107445e-004  8.1806220e-003 -1.6820837e-002 -1.6820837e-002 -1.6787376e-002 
 3.0625054e-001  1.8749986e-002 -8.7135145e-003  3.6358472e-004  8.7210964e-003 -1.6706862e-002 -1.6706862e-002 -1.6668832e-002 
 3.1875062e-001  1.8749986e-002 -9.2419693e-003  3.5414842e-004  9.2487521e-003 -1.6569059e-002 -1.6569059e-002 -1.6526289e-002 
 3.3125067e-001  1.8749986e-002 -9.7546624e-003  3.4276670e-004  9.7606825e-003 -1.6407538e-002 -1.6407538e-002 -1.6359903e-002 
 3.4375072e-001  1.8749986e-002 -1.0248694e-002  3.2943228e-004  1.0253987e-002 -1.6222496e-002 -1.6222496e-002 -1.6169924e-002 
 3.5625076e-001  1.8749986e-002 -1.0721162e-002  3.1413347e-004  1.0725763e-002 -1.6014218e-002 -1.6014218e-002 -1.5956698e-002 
 3.6875081e-001  1.8749986e-002 -1.1169163e-002  2.9685791e-004  1.1173107e-002 -1.5783116e-002 -1.5783116e-002 -1.5720697e-002 
 3.8125086e-001  1.8749986e-002 -1.1589793e-002  2.7760127e-004  1.1593117e-002 -1.5529727e-002 -1.5529727e-002 -1.5462526e-002 
 3.9375091e-001  1.8749986e-002 -1.1980159e-002  2.5636508e-004  1.1982902e-002 -1.5254743e-002 -1.5254743e-002 -1.5182949e-002 
 4.0625095e-001  1.8749986e-002 -1.2337398e-002  2.3316556e-004  1.2339601e-002 -1.4959031e-002 -1.4959031e-002 -1.4882898e-002 
 4.1875100e-001  1.8749986e-002 -1.2658692e-002  2.0803272e-004  1.2660401e-002 -1.4643640e-002 -1.4643640e-002 -1.4563497e-002 
 4.3125105e-001  1.8749986e-002 -1.2941298e-002  1.8101741e-004  1.2942564e-002 -1.4309817e-002 -1.4309817e-002 -1.4226062e-002 
 4.4375110e-001  1.8749986e-002 -1.3182576e-002  1.5219141e-004  1.3183454e-002 -1.3959035e-002 -1.3959035e-002 -1.3872134e-002 
 4.5625114e-001  1.8749986e-002 -1.3380019e-002  1.2165062e-004  1.3380572e-002 -1.3592989e-002 -1.3592989e-002 -1.3503470e-002 
 4.6875119e-001  1.8749986e-002 -1.3531297e-002  8.9511646e-005  1.3531594e-002 -1.3213627e-002 -1.3213627e-002 -1.3122075e-002 
 4.8125124e-001  1.8749986e-002 -1.3634265e-002  5.5887802e-005  1.3634380e-002 -1.2823055e-002 -1.2823055e-002 -1.2730108e-002 
 4.9375129e-001  1.8749986e-002 -1.3686910e-002  2.0890149e-005  1.3686926e-002 -1.2423415e-002 -1.2423415e-002 -1.2329749e-002 
 5.0625134e-001  1.8749986e-002 -1.3687827e-002 -1.5062818e-005  1.3687835e-002 -1.2017833e-002 -1.2017833e-002 -1.1924155e-002 
 5.1875138e-001  1.8749986e-002 -1.3635810e-002 -5.1563191e-005  1.3635908e-002 -1.1609587e-002 -1.1609587e-002 -1.1516618e-002 
 5.3125143e-001  1.8749986e-002 -1.3530298e-002 -8.8437810e-005  1.3530587e-002 -1.1201380e-002 -1.1201380e-002 -1.1109841e-002 
 5.4375148e-001  1.8749986e-002 -1.3371027e-002 -1.2540123e-004  1.3371615e-002 -1.0796342e-002 -1.0796342e-002 -1.0706942e-002 
 5.5625153e-001  1.8749986e-002 -1.3158180e-002 -1.6212805e-004  1.3159178e-002 -1.0397754e-002 -1.0397754e-002 -1.0311171e-002 
 5.6875157e-001  1.8749986e-002 -1.2892423e-002 -1.9827091e-004  1.2893948e-002 -1.0008967e-002 -1.0008967e-002 -9.9258395e-003 
 5.8125162e-001  1.8749986e-002 -1.2574937e-002 -2.3346662e-004  1.2577104e-002 -9.6333548e-003 -9.6333548e-003 -9.5542632e-003 
 5.9375167e-001  1.8749986e-002 -1.2207423e-002 -2.6734199e-004  1.2210350e-002 -9.2742899e-003 -9.2742899e-003 -9.1997432e-003 
 6.0625172e-001  1.8749986e-002 -1.1792116e-002 -2.9951471e-004  1.1795919e-002 -8.9350855e-003 -8.9350855e-003 -8.8655138e-003 
 6.1875176e-001  1.8749986e-002 -1.1331788e-002 -3.2960658e-004  1.1336581e-002 -8.6189415e-003 -8.6189415e-003 -8.5546821e-003 
 6.3125181e-001  1.8749986e-002 -1.0829743e-002 -3.5724309e-004  1.0835634e-002 -8.3288914e-003 -8.3288914e-003 -8.2701854e-003 
 6.4375186e-001  1.8749986e-002 -1.0289800e-002 -3.8206566e-004  1.0296891e-002 -8.0677513e-003 -8.0677513e-003 -8.0147386e-003 
 6.5625191e-001  1.8749986e-002 -9.7162705e-003 -4.0373276e-004  9.7246552e-003 -7.8380574e-003 -7.8380574e-003 -7.7907727e-003 
 6.6875196e-001  1.8749986e-002 -9.1139190e-003 -4.2193479e-004  9.1236802e-003 -7.6420172e-003 -7.6420172e-003 -7.6003964e-003 
 6.8125200e-001  1.8749986e-002 -8.4879240e-003 -4.3639101e-004  8.4991343e-003 -7.4814609e-003 -7.4814609e-003 -7.4453433e-003 
 6.9375205e-001  1.8749986e-002 -7.8438260e-003 -4.4686548e-004  7.8565450e-003 -7.3577994e-003 -7.3577994e-003 -7.3269368e-003 
 7.0625210e-001  1.8749986e-002 -7.1874647e-003 -4.5317120e-004  7.2017368e-003 -7.2719827e-003 -7.2719827e-003 -7.2460501e-003 
 7.1875215e-001  1.8749986e-002 -6.5248758e-003 -4.5520824e-004  6.5407353e-003 -7.2243959e-003 -7.2243959e-003 -7.2030053e-003 
 7.3125219e-001  1.8749986e-002 -5.8622332e-003 -4.5289242e-004  5.8797016e-003 -7.2149727e-003 -7.2149727e-003 -7.1976874e-003 
 7.4375224e-001  1.8749986e-002 -5.2058203e-003 -4.4612450e-004  5.2249013e-003 -7.2432426e-003 -7.2432426e-003 -7.2295927e-003 
 7.5625229e-001  1.8749986e-002 -4.5619896e-003 -4.3490037e-004  4.5826724e-003 -7.3080948e-003 -7.3080948e-003 -7.2975941e-003 
 7.6875234e-001  1.8749986e-002 -3.9370349e-003 -4.1929301e-004  3.9592991e-003 -7.4078455e-003 -7.4078455e-003 -7.4000075e-003 
 7.8125238e-001  1.8749986e-002 -3.3370971e-003 -3.9943442e-004  3.3609173e-003 -7.5402590e-003 -7.5402590e-003 -7.5346110e-003 
 7.9375243e-001  1.8749986e-002 -2.7680711e-003 -3.7552818e-004  2.7934278e-003 -7.7025443e-003 -7.7025443e-003 -7.6986426e-003 
 8.0625248e-001  1.8749986e-002 -2.2355120e-003 -3.4783827e-004  2.2624114e-003 -7.8913812e-003 -7.8913812e-003 -7.8888219e-003 
 8.1875253e-001  1.8749986e-002 -1.7445392e-003 -3.1669810e-004  1.7730524e-003 -8.1029385e-003 -8.1029385e-003 -8.1013665e-003 