Variables = "x","y", "Velocity_x", "Velocity_y", "Velocity_whole value", "Pressure", "Absolute pressure", "Total pressure"
Zone i=82, j=82
 0.0000000e+000  0.0000000e+000  0.0000000e+000  0.0000000e+000  0.0000000e+000 -1.2570143e-002 -1.2570143e-002 -1.2570143e-002 
 6.2499950e-003  0.0000000e+000  0.0000000e+000  0.0000000e+000  0.0000000e+000 -1.2569943e-002 -1.2569943e-002 -1.2569943e-002 
 1.8749986e-002  0.0000000e+000  0.0000000e+000  0.0000000e+000  0.0000000e+000 -1.2569543e-002 -1.2569543e-002 -1.2569543e-002 
 3.1249970e-002  0.0000000e+000  0.0000000e+000  0.0000000e+000  0.0000000e+000 -1.2628555e-002 -1.2628555e-002 -1.2628555e-002 
 4.3749955e-002  0.0000000e+000  0.0000000e+000  0.0000000e+000  0.0000000e+000 -1.2743298e-002 -1.2743298e-002 -1.2743298e-002 
 5.6249946e-002  0.0000000e+000  0.0000000e+000  0.0000000e+000  0.0000000e+000 -1.2900468e-002 -1.2900468e-002 -1.2900468e-002 
 6.8749934e-002  0.0000000e+000  0.0000000e+000  0.0000000e+000  0.0000000e+000 -1.3084766e-002 -1.3084766e-002 -1.3084766e-002 
 8.1249923e-002  0.0000000e+000  0.0000000e+000  0.0000000e+000  0.0000000e+000 -1.3285303e-002 -1.3285303e-002 -1.3285303e-002 
 9.3749911e-002  0.0000000e+000  0.0000000e+000  0.0000000e+000  0.0000000e+000 -1.3492919e-002 -1.3492919e-002 -1.3492919e-002 
 1.0624990e-001  0.0000000e+000  0.0000000e+000  0.0000000e+000  0.0000000e+000 -1.3700267e-002 -1.3700267e-002 -1.3700267e-002 
 1.1874990e-001  0.0000000e+000  0.0000000e+000  0.0000000e+000  0.0000000e+000 -1.3901696e-002 -1.3901696e-002 -1.3901696e-002 
 1.3124990e-001  0.0000000e+000  0.0000000e+000  0.0000000e+000  0.0000000e+000 -1.4092926e-002 -1.4092926e-002 -1.4092926e-002 
 1.4374995e-001  0.0000000e+000  0.0000000e+000  0.0000000e+000  0.0000000e+000 -1.4270779e-002 -1.4270779e-002 -1.4270779e-002 
 1.5625000e-001  0.0000000e+000  0.0000000e+000  0.0000000e+000  0.0000000e+000 -1.4432926e-002 -1.4432926e-002 -1.4432926e-002 
 1.6875005e-001  0.0000000e+000  0.0000000e+000  0.0000000e+000  0.0000000e+000 -1.4577697e-002 -1.4577697e-002 -1.4577697e-002 
 1.8125010e-001  0.0000000e+000  0.0000000e+000  0.0000000e+000  0.0000000e+000 -1.4703912e-002 -1.4703912e-002 -1.4703912e-002 
 1.9375014e-001  0.0000000e+000  0.0000000e+000  0.0000000e+000  0.0000000e+000 -1.4810757e-002 -1.4810757e-002 -1.4810757e-002 
 2.0625019e-001  0.0000000e+000  0.0000000e+000  0.0000000e+000  0.0000000e+000 -1.4897665e-002 -1.4897665e-002 -1.4897665e-002 
 2.1875025e-001  0.0000000e+000  0.0000000e+000  0.0000000e+000  0.0000000e+000 -1.4964236e-002 -1.4964236e-002 -1.4964236e-002 
 2.3125030e-001  0.0000000e+000  0.0000000e+000  0.0000000e+000  0.0000000e+000 -1.5010172e-002 -1.5010172e-002 -1.5010172e-002 
 2.4375033e-001  0.0000000e+000  0.0000000e+000  0.0000000e+000  0.0000000e+000 -1.5035230e-002 -1.5035230e-002 -1.5035230e-002 
 2.5625038e-001  0.0000000e+000  0.0000000e+000  0.0000000e+000  0.0000000e+000 -1.5039176e-002 -1.5039176e-002 -1.5039176e-002 
 2.6875046e-001  0.0000000e+000  0.0000000e+000  0.0000000e+000  0.0000000e+000 -1.5021788e-002 -1.5021788e-002 -1.5021788e-002 
 2.8125051e-001  0.0000000e+000  0.0000000e+000  0.0000000e+000  0.0000000e+000 -1.4982801e-002 -1.4982801e-002 -1.4982801e-002 
 2.9375049e-001  0.0000000e+000  0.0000000e+000  0.0000000e+000  0.0000000e+000 -1.4921954e-002 -1.4921954e-002 -1.4921954e-002 
 3.0625054e-001  0.0000000e+000  0.0000000e+000  0.0000000e+000  0.0000000e+000 -1.4838989e-002 -1.4838989e-002 -1.4838989e-002 
 3.1875062e-001  0.0000000e+000  0.0000000e+000  0.0000000e+000  0.0000000e+000 -1.4733654e-002 -1.4733654e-002 -1.4733654e-002 
 3.3125067e-001  0.0000000e+000  0.0000000e+000  0.0000000e+000  0.0000000e+000 -1.4605751e-002 -1.4605751e-002 -1.4605751e-002 
 3.4375072e-001  0.0000000e+000  0.0000000e+000  0.0000000e+000  0.0000000e+000 -1.4455129e-002 -1.4455129e-002 -1.4455129e-002 
 3.5625076e-001  0.0000000e+000  0.0000000e+000  0.0000000e+000  0.0000000e+000 -1.4281735e-002 -1.4281735e-002 -1.4281735e-002 
 3.6875081e-001  0.0000000e+000  0.0000000e+000  0.0000000e+000  0.0000000e+000 -1.4085629e-002 -1.4085629e-002 -1.4085629e-002 
 3.8125086e-001  0.0000000e+000  0.0000000e+000  0.0000000e+000  0.0000000e+000 -1.3867019e-002 -1.3867019e-002 -1.3867019e-002 
 3.9375091e-001  0.0000000e+000  0.0000000e+000  0.0000000e+000  0.0000000e+000 -1.3626286e-002 -1.3626286e-002 -1.3626286e-002 
 4.0625095e-001  0.0000000e+000  0.0000000e+000  0.0000000e+000  0.0000000e+000 -1.3364017e-002 -1.3364017e-002 -1.3364017e-002 
 4.1875100e-001  0.0000000e+000  0.0000000e+000  0.0000000e+000  0.0000000e+000 -1.3081035e-002 -1.3081035e-002 -1.3081035e-002 
 4.3125105e-001  0.0000000e+000  0.0000000e+000  0.0000000e+000  0.0000000e+000 -1.2778392e-002 -1.2778392e-002 -1.2778392e-002 
 4.4375110e-001  0.0000000e+000  0.0000000e+000  0.0000000e+000  0.0000000e+000 -1.2457430e-002 -1.2457430e-002 -1.2457430e-002 
 4.5625114e-001  0.0000000e+000  0.0000000e+000  0.0000000e+000  0.0000000e+000 -1.2119770e-002 -1.2119770e-002 -1.2119770e-002 
 4.6875119e-001  0.0000000e+000  0.0000000e+000  0.0000000e+000  0.0000000e+000 -1.1767321e-002 -1.1767321e-002 -1.1767321e-002 
 4.8125124e-001  0.0000000e+000  0.0000000e+000  0.0000000e+000  0.0000000e+000 -1.1402281e-002 -1.1402281e-002 -1.1402281e-002 
 4.9375129e-001  0.0000000e+000  0.0000000e+000  0.0000000e+000  0.0000000e+000 -1.1027144e-002 -1.1027144e-002 -1.1027144e-002 
 5.0625134e-001  0.0000000e+000  0.0000000e+000  0.0000000e+000  0.0000000e+000 -1.0644809e-002 -1.0644809e-002 -1.0644809e-002 
 5.1875138e-001  0.0000000e+000  0.0000000e+000  0.0000000e+000  0.0000000e+000 -1.0258435e-002 -1.0258435e-002 -1.0258435e-002 
 5.3125143e-001  0.0000000e+000  0.0000000e+000  0.0000000e+000  0.0000000e+000 -9.8713059e-003 -9.8713059e-003 -9.8713059e-003 
 5.4375148e-001  0.0000000e+000  0.0000000e+000  0.0000000e+000  0.0000000e+000 -9.4868951e-003 -9.4868951e-003 -9.4868951e-003 
 5.5625153e-001  0.0000000e+000  0.0000000e+000  0.0000000e+000  0.0000000e+000 -9.1088582e-003 -9.1088582e-003 -9.1088582e-003 
 5.6875157e-001  0.0000000e+000  0.0000000e+000  0.0000000e+000  0.0000000e+000 -8.7409485e-003 -8.7409485e-003 -8.7409485e-003 
 5.8125162e-001  0.0000000e+000  0.0000000e+000  0.0000000e+000  0.0000000e+000 -8.3869901e-003 -8.3869901e-003 -8.3869901e-003 
 5.9375167e-001  0.0000000e+000  0.0000000e+000  0.0000000e+000  0.0000000e+000 -8.0508031e-003 -8.0508031e-003 -8.0508031e-003 
 6.0625172e-001  0.0000000e+000  0.0000000e+000  0.0000000e+000  0.0000000e+000 -7.7361339e-003 -7.7361339e-003 -7.7361339e-003 
 6.1875176e-001  0.0000000e+000  0.0000000e+000  0.0000000e+000  0.0000000e+000 -7.4466025e-003 -7.4466025e-003 -7.4466025e-003 
 6.3125181e-001  0.0000000e+000  0.0000000e+000  0.0000000e+000  0.0000000e+000 -7.1856217e-003 -7.1856217e-003 -7.1856217e-003 
 6.4375186e-001  0.0000000e+000  0.0000000e+000  0.0000000e+000  0.0000000e+000 -6.9563286e-003 -6.9563286e-003 -6.9563286e-003 
 6.5625191e-001  0.0000000e+000  0.0000000e+000  0.0000000e+000  0.0000000e+000 -6.7615202e-003 -6.7615202e-003 -6.7615202e-003 
 6.6875196e-001  0.0000000e+000  0.0000000e+000  0.0000000e+000  0.0000000e+000 -6.6035809e-003 -6.6035809e-003 -6.6035809e-003 
 6.8125200e-001  0.0000000e+000  0.0000000e+000  0.0000000e+000  0.0000000e+000 -6.4844321e-003 -6.4844321e-003 -6.4844321e-003 
 6.9375205e-001  0.0000000e+000  0.0000000e+000  0.0000000e+000  0.0000000e+000 -6.4054662e-003 -6.4054662e-003 -6.4054662e-003 
 7.0625210e-001  0.0000000e+000  0.0000000e+000  0.0000000e+000  0.0000000e+000 -6.3675065e-003 -6.3675065e-003 -6.3675065e-003 
 7.1875215e-001  0.0000000e+000  0.0000000e+000  0.0000000e+000  0.0000000e+000 -6.3707670e-003 -6.3707670e-003 -6.3707670e-003 
 7.3125219e-001  0.0000000e+000  0.0000000e+000  0.0000000e+000  0.0000000e+000 -6.4148875e-003 -6.4148875e-003 -6.4148875e-003 
 7.4375224e-001  0.0000000e+000  0.0000000e+000  0.0000000e+000  0.0000000e+000 -6.4988537e-003 -6.4988537e-003 -6.4988537e-003 
 7.5625229e-001  0.0000000e+000  0.0000000e+000  0.0000000e+000  0.0000000e+000 -6.6210125e-003 -6.6210125e-003 -6.6210125e-003 
 7.6875234e-001  0.0000000e+000  0.0000000e+000  0.0000000e+000  0.0000000e+000 -6.7790579e-003 -6.7790579e-003 -6.7790579e-003 
 7.8125238e-001  0.0000000e+000  0.0000000e+000  0.0000000e+000  0.0000000e+000 -6.9700712e-003 -6.9700712e-003 -6.9700712e-003 
 7.9375243e-001  0.0000000e+000  0.0000000e+000  0.0000000e+000  0.0000000e+000 -7.1905316e-003 -7.1905316e-003 -7.1905316e-003 
 8.0625248e-001  0.0000000e+000  0.0000000e+000  0.0000000e+000  0.0000000e+000 -7.4363640e-003 -7.4363640e-003 -7.4363640e-003 
 8.1875253e-001  0.0000000e+000  0.0000000e+000  0.0000000e+000  0.0000000e+000 -7.7029751e-003 -7.7029751e-003 -7.7029751e-003 
 8.3125257e-001  0.0000000e+000  0.0000000e+000  0.0000000e+000  0.0000000e+000 -7.9853032e-003 -7.9853032e-003 -7.9853032e-003 
 8.4375262e-001  0.0000000e+000  0.0000000e+000  0.0000000e+000  0.0000000e+000 -8.2778577e-003 -8.2778577e-003 -8.2778577e-003 
 8.5625267e-001  0.0000000e+000  0.0000000e+000  0.0000000e+000  0.0000000e+000 -8.5747801e-003 -8.5747801e-003 -8.5747801e-003 
 8.6875272e-001  0.0000000e+000  0.0000000e+000  0.0000000e+000  0.0000000e+000 -8.8698696e-003 -8.8698696e-003 -8.8698696e-003 
 8.8125277e-001  0.0000000e+000  0.0000000e+000  0.0000000e+000  0.0000000e+000 -9.1566406e-003 -9.1566406e-003 -9.1566406e-003 
 8.9375281e-001  0.0000000e+000  0.0000000e+000  0.0000000e+000  0.0000000e+000 -9.4286762e-003 -9.4286762e-003 -9.4286762e-003 
 9.0625286e-001  0.0000000e+000  0.0000000e+000  0.0000000e+000  0.0000000e+000 -9.6799647e-003 -9.6799647e-003 -9.6799647e-003 
 9.1875291e-001  0.0000000e+000  0.0000000e+000  0.0000000e+000  0.0000000e+000 -9.8991413e-003 -9.8991413e-003 -9.8991413e-003 
 9.3125296e-001  0.0000000e+000  0.0000000e+000  0.0000000e+000  0.0000000e+000 -1.0083411e-002 -1.0083411e-002 -1.0083411e-002 
 9.4375300e-001  0.0000000e+000  0.0000000e+000  0.0000000e+000  0.0000000e+000 -1.0225142e-002 -1.0225142e-002 -1.0225142e-002 
 9.5625305e-001  0.0000000e+000  0.0000000e+000  0.0000000e+000  0.0000000e+000 -1.0318512e-002 -1.0318512e-002 -1.0318512e-002 
 9.6875310e-001  0.0000000e+000  0.0000000e+000  0.0000000e+000  0.0000000e+000 -1.0361049e-002 -1.0361049e-002 -1.0361049e-002 
 9.8125315e-001  0.0000000e+000  0.0000000e+000  0.0000000e+000  0.0000000e+000 -1.0356185e-002 -1.0356185e-002 -1.0356185e-002 
 9.9375159e-001  0.0000000e+000  0.0000000e+000  0.0000000e+000  0.0000000e+000 -1.0318530e-002 -1.0318530e-002 -1.0318530e-002 
 1.0000000e+000  0.0000000e+000  0.0000000e+000  0.0000000e+000  0.0000000e+000 -1.0299705e-002 -1.0299705e-002 -1.0299705e-002 
 0.0000000e+000  6.2499950e-003  0.0000000e+000  0.0000000e+000  0.0000000e+000 -1.2570331e-002 -1.2570331e-002 -1.2570331e-002 
 6.2499950e-003  6.2499950e-003  5.6350982e-006 -5.6181043e-006  7.9572246e-006 -1.2570148e-002 -1.2570148e-002 -1.2570148e-002 
 1.8749986e-002  6.2499950e-003  2.8600878e-005 -1.1668359e-005  3.0889492e-005 -1.2569781e-002 -1.2569781e-002 -1.2569780e-002 
 3.1249970e-002  6.2499950e-003  5.5823635e-005 -1.0704283e-005  5.6840654e-005 -1.2625272e-002 -1.2625272e-002 -1.2625271e-002 
 4.3749955e-002  6.2499950e-003  7.0562419e-005 -7.3232341e-006  7.0941416e-005 -1.2731494e-002 -1.2731494e-002 -1.2731492e-002 
 5.6249946e-002  6.2499950e-003  6.4974010e-005 -3.6031397e-006  6.5073837e-005 -1.2875617e-002 -1.2875617e-002 -1.2875615e-002 
 6.8749934e-002  6.2499950e-003  3.6387675e-005  1.1047482e-007  3.6387843e-005 -1.3045066e-002 -1.3045066e-002 -1.3045065e-002 
 8.1249923e-002  6.2499950e-003 -1.5486492e-005  3.5132573e-006  1.5880001e-005 -1.3230097e-002 -1.3230097e-002 -1.3230097e-002 
 9.3749911e-002  6.2499950e-003 -8.9781104e-005  6.4944470e-006  9.0015688e-005 -1.3422388e-002 -1.3422388e-002 -1.3422384e-002 
 1.0624990e-001  6.2499950e-003 -1.8493678e-004  9.0500353e-006  1.8515809e-004 -1.3615175e-002 -1.3615175e-002 -1.3615158e-002 
 1.1874990e-001  6.2499950e-003 -2.9904107e-004  1.1212052e-005  2.9925117e-004 -1.3803150e-002 -1.3803150e-002 -1.3803105e-002 
 1.3124990e-001  6.2499950e-003 -4.3004428e-004  1.3020995e-005  4.3024137e-004 -1.3982218e-002 -1.3982218e-002 -1.3982126e-002 
 1.4374995e-001  6.2499950e-003 -5.7588884e-004  1.4521190e-005  5.7607191e-004 -1.4149276e-002 -1.4149276e-002 -1.4149110e-002 
 1.5625000e-001  6.2499950e-003 -7.3458295e-004  1.5752499e-005  7.3475181e-004 -1.4301999e-002 -1.4301999e-002 -1.4301729e-002 
 1.6875005e-001  6.2499950e-003 -9.0424571e-004  1.6754922e-005  9.0440095e-004 -1.4438687e-002 -1.4438687e-002 -1.4438278e-002 
 1.8125010e-001  6.2499950e-003 -1.0831279e-003  1.7561117e-005  1.0832703e-003 -1.4558096e-002 -1.4558096e-002 -1.4557510e-002 
 1.9375014e-001  6.2499950e-003 -1.2696167e-003  1.8202005e-005  1.2697472e-003 -1.4659344e-002 -1.4659344e-002 -1.4658538e-002 
 2.0625019e-001  6.2499950e-003 -1.4622322e-003  1.8701119e-005  1.4623518e-003 -1.4741788e-002 -1.4741788e-002 -1.4740719e-002 
 2.1875025e-001  6.2499950e-003 -1.6596154e-003  1.9080961e-005  1.6597251e-003 -1.4804961e-002 -1.4804961e-002 -1.4803584e-002 
 2.3125030e-001  6.2499950e-003 -1.8605113e-003  1.9355359e-005  1.8606120e-003 -1.4848500e-002 -1.4848500e-002 -1.4846769e-002 
 2.4375033e-001  6.2499950e-003 -2.0637512e-003  1.9538347e-005  2.0638437e-003 -1.4872112e-002 -1.4872112e-002 -1.4869982e-002 
 2.5625038e-001  6.2499950e-003 -2.2682347e-003  1.9637562e-005  2.2683197e-003 -1.4875525e-002 -1.4875525e-002 -1.4872952e-002 
 2.6875046e-001  6.2499950e-003 -2.4729101e-003  1.9660483e-005  2.4729883e-003 -1.4858486e-002 -1.4858486e-002 -1.4855429e-002 
 2.8125051e-001  6.2499950e-003 -2.6767512e-003  1.9604064e-005  2.6768229e-003 -1.4820716e-002 -1.4820716e-002 -1.4817134e-002 
 2.9375049e-001  6.2499950e-003 -2.8787360e-003  1.9467925e-005  2.8788019e-003 -1.4761948e-002 -1.4761948e-002 -1.4757805e-002 
 3.0625054e-001  6.2499950e-003 -3.0778407e-003  1.9248784e-005  3.0779010e-003 -1.4681924e-002 -1.4681924e-002 -1.4677187e-002 
 3.1875062e-001  6.2499950e-003 -3.2730226e-003  1.8940960e-005  3.2730773e-003 -1.4580405e-002 -1.4580405e-002 -1.4575048e-002 
 3.3125067e-001  6.2499950e-003 -3.4632157e-003  1.8538456e-005  3.4632653e-003 -1.4457204e-002 -1.4457204e-002 -1.4451208e-002 
 3.4375072e-001  6.2499950e-003 -3.6473246e-003  1.8034738e-005  3.6473693e-003 -1.4312188e-002 -1.4312188e-002 -1.4305537e-002 
 3.5625076e-001  6.2499950e-003 -3.8242200e-003  1.7420849e-005  3.8242596e-003 -1.4145317e-002 -1.4145317e-002 -1.4138004e-002 
 3.6875081e-001  6.2499950e-003 -3.9927424e-003  1.6690437e-005  3.9927773e-003 -1.3956666e-002 -1.3956666e-002 -1.3948695e-002 
 3.8125086e-001  6.2499950e-003 -4.1517038e-003  1.5837199e-005  4.1517341e-003 -1.3746453e-002 -1.3746453e-002 -1.3737834e-002 
 3.9375091e-001  6.2499950e-003 -4.2998940e-003  1.4852893e-005  4.2999196e-003 -1.3515064e-002 -1.3515064e-002 -1.3505819e-002 
 4.0625095e-001  6.2499950e-003 -4.4360901e-003  1.3734174e-005  4.4361115e-003 -1.3263079e-002 -1.3263079e-002 -1.3253240e-002 
 4.1875100e-001  6.2499950e-003 -4.5590708e-003  1.2475963e-005  4.5590880e-003 -1.2991305e-002 -1.2991305e-002 -1.2980912e-002 
 4.3125105e-001  6.2499950e-003 -4.6676281e-003  1.1078838e-005  4.6676411e-003 -1.2700775e-002 -1.2700775e-002 -1.2689881e-002 
 4.4375110e-001  6.2499950e-003 -4.7605825e-003  9.5419837e-006  4.7605922e-003 -1.2392787e-002 -1.2392787e-002 -1.2381456e-002 
 4.5625114e-001  6.2499950e-003 -4.8368024e-003  7.8685262e-006  4.8368089e-003 -1.2068912e-002 -1.2068912e-002 -1.2057215e-002 
 4.6875119e-001  6.2499950e-003 -4.8952280e-003  6.0642597e-006  4.8952317e-003 -1.1730998e-002 -1.1730998e-002 -1.1719016e-002 
 4.8125124e-001  6.2499950e-003 -4.9348813e-003  4.1352237e-006  4.9348832e-003 -1.1381158e-002 -1.1381158e-002 -1.1368982e-002 
 4.9375129e-001  6.2499950e-003 -4.9548652e-003  2.0741170e-006  4.9548657e-003 -1.1021764e-002 -1.1021764e-002 -1.1009488e-002 
 5.0625134e-001  6.2499950e-003 -4.9544405e-003 -8.4742148e-008  4.9544405e-003 -1.0655614e-002 -1.0655614e-002 -1.0643341e-002 
 5.1875138e-001  6.2499950e-003 -4.9330508e-003 -2.3016869e-006  4.9330513e-003 -1.0285756e-002 -1.0285756e-002 -1.0273588e-002 
 5.3125143e-001  6.2499950e-003 -4.8903381e-003 -4.5767156e-006  4.8903404e-003 -9.9153025e-003 -9.9153025e-003 -9.9033453e-003 
 5.4375148e-001  6.2499950e-003 -4.8261099e-003 -6.8874629e-006  4.8261150e-003 -9.5475782e-003 -9.5475782e-003 -9.5359329e-003 
 5.5625153e-001  6.2499950e-003 -4.7403816e-003 -9.2085475e-006  4.7403905e-003 -9.1860723e-003 -9.1860723e-003 -9.1748368e-003 
 5.6875157e-001  6.2499950e-003 -4.6333917e-003 -1.1512562e-005  4.6334062e-003 -8.8343713e-003 -8.8343713e-003 -8.8236369e-003 
 5.8125162e-001  6.2499950e-003 -4.5056175e-003 -1.3770542e-005  4.5056385e-003 -8.4961159e-003 -8.4961159e-003 -8.4859654e-003 
 5.9375167e-001  6.2499950e-003 -4.3577794e-003 -1.5951771e-005  4.3578087e-003 -8.1749428e-003 -8.1749428e-003 -8.1654480e-003 
 6.0625172e-001  6.2499950e-003 -4.1908459e-003 -1.8024652e-005  4.1908845e-003 -7.8744190e-003 -7.8744190e-003 -7.8656375e-003 
 6.1875176e-001  6.2499950e-003 -4.0060361e-003 -1.9958408e-005  4.0060859e-003 -7.5979796e-003 -7.5979796e-003 -7.5899553e-003 
 6.3125181e-001  6.2499950e-003 -3.8048129e-003 -2.1721133e-005  3.8048748e-003 -7.3488643e-003 -7.3488643e-003 -7.3416256e-003 
 6.4375186e-001  6.2499950e-003 -3.5888753e-003 -2.3283685e-005  3.5889507e-003 -7.1300445e-003 -7.1300445e-003 -7.1236044e-003 
 6.5625191e-001  6.2499950e-003 -3.3601434e-003 -2.4616760e-005  3.3602335e-003 -6.9441632e-003 -6.9441632e-003 -6.9385176e-003 
 6.6875196e-001  6.2499950e-003 -3.1207399e-003 -2.5696536e-005  3.1208456e-003 -6.7934683e-003 -6.7934683e-003 -6.7885984e-003 
 6.8125200e-001  6.2499950e-003 -2.8729674e-003 -2.6498557e-005  2.8730896e-003 -6.6797636e-003 -6.6797636e-003 -6.6756364e-003 
 6.9375205e-001  6.2499950e-003 -2.6192807e-003 -2.7005586e-005  2.6194199e-003 -6.6043464e-003 -6.6043464e-003 -6.6009159e-003 
 7.0625210e-001  6.2499950e-003 -2.3622506e-003 -2.7203543e-005  2.3624073e-003 -6.5679699e-003 -6.5679699e-003 -6.5651792e-003 
 7.1875215e-001  6.2499950e-003 -2.1045203e-003 -2.7090053e-005  2.1046947e-003 -6.5707993e-003 -6.5707993e-003 -6.5685846e-003 
 7.3125219e-001  6.2499950e-003 -1.8487812e-003 -2.6652966e-005  1.8489733e-003 -6.6124606e-003 -6.6124606e-003 -6.6107512e-003 
 7.4375224e-001  6.2499950e-003 -1.5977431e-003 -2.5892796e-005  1.5979529e-003 -6.6919508e-003 -6.6919508e-003 -6.6906740e-003 
 7.5625229e-001  6.2499950e-003 -1.3540873e-003 -2.4812753e-005  1.3543146e-003 -6.8076551e-003 -6.8076551e-003 -6.8067382e-003 
 7.6875234e-001  6.2499950e-003 -1.1204224e-003 -2.3425519e-005  1.1206672e-003 -6.9573424e-003 -6.9573424e-003 -6.9567142e-003 
 7.8125238e-001  6.2499950e-003 -8.9924142e-004 -2.1744294e-005  8.9950429e-004 -7.1381968e-003 -7.1381968e-003 -7.1377922e-003 
 7.9375243e-001  6.2499950e-003 -6.9288013e-004 -1.9791552e-005  6.9316273e-004 -7.3468331e-003 -7.3468331e-003 -7.3465928e-003 
 8.0625248e-001  6.2499950e-003 -5.0347712e-004 -1.7589455e-005  5.0378428e-004 -7.5793439e-003 -7.5793439e-003 -7.5792167e-003 
 8.1875253e-001  6.2499950e-003 -3.3293501e-004 -1.5167398e-005  3.3328033e-004 -7.8313332e-003 -7.8313332e-003 -7.8312773e-003 
 8.3125257e-001  6.2499950e-003 -1.8288252e-004 -1.2555540e-005  1.8331301e-004 -8.0979662e-003 -8.0979662e-003 -8.0979494e-003 
 8.4375262e-001  6.2499950e-003 -5.4638876e-005 -9.7888560e-006  5.5508815e-005 -8.3740149e-003 -8.3740149e-003 -8.3740130e-003 
 8.5625267e-001  6.2499950e-003  5.0827271e-005 -6.9044513e-006  5.1294082e-005 -8.6539136e-003 -8.6539136e-003 -8.6539127e-003 
 8.6875272e-001  6.2499950e-003  1.3293666e-004 -3.9427955e-006  1.3299512e-004 -8.9317979e-003 -8.9317979e-003 -8.9317895e-003 
 8.8125277e-001  6.2499950e-003  1.9155802e-004 -9.5792507e-007  1.9156042e-004 -9.2015658e-003 -9.2015658e-003 -9.2015471e-003 
 8.9375281e-001  6.2499950e-003  2.2704499e-004  1.9348408e-006  2.2705324e-004 -9.4570993e-003 -9.4570993e-003 -9.4570732e-003 
 9.0625286e-001  6.2499950e-003  2.4017291e-004  4.5771549e-006  2.4021653e-004 -9.6924296e-003 -9.6924296e-003 -9.6924007e-003 
 9.1875291e-001  6.2499950e-003  2.3265969e-004  7.5533540e-006  2.3278227e-004 -9.8988339e-003 -9.8988339e-003 -9.8988069e-003 
 9.3125296e-001  6.2499950e-003  2.0707547e-004  1.0048910e-005  2.0731916e-004 -1.0072191e-002 -1.0072191e-002 -1.0072170e-002 
 9.4375300e-001  6.2499950e-003  1.6687256e-004  1.1877069e-005  1.6729470e-004 -1.0206074e-002 -1.0206074e-002 -1.0206060e-002 
 9.5625305e-001  6.2499950e-003  1.1717247e-004  1.2638287e-005  1.1785208e-004 -1.0295589e-002 -1.0295589e-002 -1.0295583e-002 
 9.6875310e-001  6.2499950e-003  6.5034488e-005  1.1560558e-005  6.6054003e-005 -1.0338781e-002 -1.0338781e-002 -1.0338780e-002 
 9.8125315e-001  6.2499950e-003  2.0487982e-005  7.2298462e-006  2.1726208e-005 -1.0337474e-002 -1.0337474e-002 -1.0337474e-002 
 9.9375159e-001  6.2499950e-003 -1.5072102e-006 -1.4889017e-006  2.1186106e-006 -1.0299692e-002 -1.0299692e-002 -1.0299692e-002 
 1.0000000e+000  6.2499950e-003  0.0000000e+000  0.0000000e+000  0.0000000e+000 -1.0280805e-002 -1.0280805e-002 -1.0280805e-002 
 0.0000000e+000  1.8749986e-002  0.0000000e+000  0.0000000e+000  0.0000000e+000 -1.2570708e-002 -1.2570708e-002 -1.2570708e-002 
 6.2499950e-003  1.8749986e-002  1.1781217e-005 -2.8638358e-005  3.0966959e-005 -1.2570558e-002 -1.2570558e-002 -1.2570557e-002 
 1.8749986e-002  1.8749986e-002  4.9455593e-005 -4.9217488e-005  6.9772606e-005 -1.2570256e-002 -1.2570256e-002 -1.2570254e-002 
 3.1249970e-002  1.8749986e-002  8.2166182e-005 -3.6018275e-005  8.9713976e-005 -1.2618705e-002 -1.2618705e-002 -1.2618701e-002 
 4.3749955e-002  1.8749986e-002  8.0524718e-005 -4.0798254e-006  8.0628008e-005 -1.2707884e-002 -1.2707884e-002 -1.2707882e-002 
 5.6249946e-002  1.8749986e-002  2.8390868e-005  3.6703022e-005  4.6402081e-005 -1.2825911e-002 -1.2825911e-002 -1.2825910e-002 
 6.8749934e-002  1.8749986e-002 -8.1420476e-005  8.0723876e-005  1.1465443e-004 -1.2965663e-002 -1.2965663e-002 -1.2965657e-002 
 8.1249923e-002  1.8749986e-002 -2.5115957e-004  1.2456978e-004  2.8035470e-004 -1.3119680e-002 -1.3119680e-002 -1.3119641e-002 
 9.3749911e-002  1.8749986e-002 -4.7976719e-004  1.6627535e-004  5.0776376e-004 -1.3281326e-002 -1.3281326e-002 -1.3281197e-002 
 1.0624990e-001  1.8749986e-002 -7.6412241e-004  2.0477512e-004  7.9108524e-004 -1.3444992e-002 -1.3444992e-002 -1.3444679e-002 
 1.1874990e-001  1.8749986e-002 -1.0999019e-003  2.3955098e-004  1.1256859e-003 -1.3606059e-002 -1.3606059e-002 -1.3605426e-002 
 1.3124990e-001  1.8749986e-002 -1.4821589e-003  2.7042121e-004  1.5066263e-003 -1.3760802e-002 -1.3760802e-002 -1.3759667e-002 
 1.4374995e-001  1.8749986e-002 -1.9057073e-003  2.9741123e-004  1.9287752e-003 -1.3906267e-002 -1.3906267e-002 -1.3904407e-002 
 1.5625000e-001  1.8749986e-002 -2.3653631e-003  3.2066743e-004  2.3870002e-003 -1.4040146e-002 -1.4040146e-002 -1.4037297e-002 
 1.6875005e-001  1.8749986e-002 -2.8561042e-003  3.4041004e-004  2.8763188e-003 -1.4160664e-002 -1.4160664e-002 -1.4156527e-002 
 1.8125010e-001  1.8749986e-002 -3.3731579e-003  3.5688450e-004  3.3919849e-003 -1.4266464e-002 -1.4266464e-002 -1.4260711e-002 
 1.9375014e-001  1.8749986e-002 -3.9120405e-003  3.7034554e-004  3.9295312e-003 -1.4356516e-002 -1.4356516e-002 -1.4348796e-002 
 2.0625019e-001  1.8749986e-002 -4.4685663e-003  3.8103055e-004  4.4847820e-003 -1.4430035e-002 -1.4430035e-002 -1.4419978e-002 
 2.1875025e-001  1.8749986e-002 -5.0388332e-003  3.8915669e-004  5.0538387e-003 -1.4486411e-002 -1.4486411e-002 -1.4473640e-002 
 2.3125030e-001  1.8749986e-002 -5.6191902e-003  3.9490371e-004  5.6330496e-003 -1.4525158e-002 -1.4525158e-002 -1.4509292e-002 
 2.4375033e-001  1.8749986e-002 -6.2061991e-003  3.9842070e-004  6.2189745e-003 -1.4545877e-002 -1.4545877e-002 -1.4526539e-002 
 2.5625038e-001  1.8749986e-002 -6.7965952e-003  3.9981792e-004  6.8083447e-003 -1.4548222e-002 -1.4548222e-002 -1.4525045e-002 
 2.6875046e-001  1.8749986e-002 -7.3872372e-003  3.9917513e-004  7.3980140e-003 -1.4531883e-002 -1.4531883e-002 -1.4504518e-002 
 2.8125051e-001  1.8749986e-002 -7.9750540e-003  3.9651373e-004  7.9849055e-003 -1.4496546e-002 -1.4496546e-002 -1.4464667e-002 
 2.9375049e-001  1.8749986e-002 -8.5569965e-003  3.9183992e-004  8.5659632e-003 -1.4441935e-002 -1.4441935e-002 -1.4405248e-002 
 3.0625054e-001  1.8749986e-002 -9.1300216e-003  3.8513675e-004  9.1381408e-003 -1.4367795e-002 -1.4367795e-002 -1.4326042e-002 
 3.1875062e-001  1.8749986e-002 -9.6910466e-003  3.7636442e-004  9.6983518e-003 -1.4273909e-002 -1.4273909e-002 -1.4226880e-002 
 3.3125067e-001  1.8749986e-002 -1.0236937e-002  3.6547336e-004  1.0243459e-002 -1.4160112e-002 -1.4160112e-002 -1.4107647e-002 
 3.4375072e-001  1.8749986e-002 -1.0764499e-002  3.5240530e-004  1.0770266e-002 -1.4026307e-002 -1.4026307e-002 -1.3968308e-002 
 3.5625076e-001  1.8749986e-002 -1.1270465e-002  3.3709995e-004  1.1275506e-002 -1.3872480e-002 -1.3872480e-002 -1.3808912e-002 
 3.6875081e-001  1.8749986e-002 -1.1751505e-002  3.1950162e-004  1.1755847e-002 -1.3698740e-002 -1.3698740e-002 -1.3629640e-002 
 3.8125086e-001  1.8749986e-002 -1.2204231e-002  2.9956509e-004  1.2207907e-002 -1.3505321e-002 -1.3505321e-002 -1.3430805e-002 
 3.9375091e-001  1.8749986e-002 -1.2625218e-002  2.7725825e-004  1.2628262e-002 -1.3292617e-002 -1.3292617e-002 -1.3212881e-002 
 4.0625095e-001  1.8749986e-002 -1.3011037e-002  2.5257358e-004  1.3013489e-002 -1.3061203e-002 -1.3061203e-002 -1.2976527e-002 
 4.1875100e-001  1.8749986e-002 -1.3358278e-002  2.2552417e-004  1.3360182e-002 -1.2811846e-002 -1.2811846e-002 -1.2722599e-002 
 4.3125105e-001  1.8749986e-002 -1.3663594e-002  1.9615801e-004  1.3665002e-002 -1.2545540e-002 -1.2545540e-002 -1.2452174e-002 
 4.4375110e-001  1.8749986e-002 -1.3923747e-002  1.6455185e-004  1.3924719e-002 -1.2263501e-002 -1.2263501e-002 -1.2166552e-002 
 4.5625114e-001  1.8749986e-002 -1.4135648e-002  1.3082057e-004  1.4136253e-002 -1.1967200e-002 -1.1967200e-002 -1.1867283e-002 
 4.6875119e-001  1.8749986e-002 -1.4296427e-002  9.5114767e-005  1.4296744e-002 -1.1658352e-002 -1.1658352e-002 -1.1556153e-002 
 4.8125124e-001  1.8749986e-002 -1.4403466e-002  5.7616940e-005  1.4403582e-002 -1.1338912e-002 -1.1338912e-002 -1.1235180e-002 
 4.9375129e-001  1.8749986e-002 -1.4454414e-002  1.8521956e-005  1.4454426e-002 -1.1011004e-002 -1.1011004e-002 -1.0906538e-002 
 5.0625134e-001  1.8749986e-002 -1.4447411e-002 -2.1818545e-005  1.4447427e-002 -1.0677223e-002 -1.0677223e-002 -1.0572859e-002 
 5.1875138e-001  1.8749986e-002 -1.4380977e-002 -6.3013271e-005  1.4381115e-002 -1.0340397e-002 -1.0340397e-002 -1.0236989e-002 
 5.3125143e-001  1.8749986e-002 -1.4254232e-002 -1.0474904e-004  1.4254617e-002 -1.0003296e-002 -1.0003296e-002 -9.9016987e-003 
 5.4375148e-001  1.8749986e-002 -1.4066784e-002 -1.4664067e-004  1.4067548e-002 -9.6689444e-003 -9.6689444e-003 -9.5699960e-003 
 5.5625153e-001  1.8749986e-002 -1.3818813e-002 -1.8826775e-004  1.3820096e-002 -9.3405014e-003 -9.3405014e-003 -9.2450036e-003 
 5.6875157e-001  1.8749986e-002 -1.3511123e-002 -2.2918503e-004  1.3513067e-002 -9.0212170e-003 -9.0212170e-003 -8.9299157e-003 
 5.8125162e-001  1.8749986e-002 -1.3145163e-002 -2.6892568e-004  1.3147913e-002 -8.7143667e-003 -8.7143667e-003 -8.6279325e-003 
 5.9375167e-001  1.8749986e-002 -1.2723048e-002 -3.0701348e-004  1.2726752e-002 -8.4232241e-003 -8.4232241e-003 -8.3422391e-003 
 6.0625172e-001  1.8749986e-002 -1.2247570e-002 -3.4296306e-004  1.2252371e-002 -8.1509892e-003 -8.1509892e-003 -8.0759292e-003 
 6.1875176e-001  1.8749986e-002 -1.1722194e-002 -3.7630016e-004  1.1728233e-002 -7.9007354e-003 -7.9007354e-003 -7.8319600e-003 
 6.3125181e-001  1.8749986e-002 -1.1151044e-002 -4.0655679e-004  1.1158452e-002 -7.6753511e-003 -7.6753511e-003 -7.6130955e-003 
 6.4375186e-001  1.8749986e-002 -1.0538877e-002 -4.3329285e-004  1.0547780e-002 -7.4774781e-003 -7.4774781e-003 -7.4218502e-003 
 6.5625191e-001  1.8749986e-002 -9.8910453e-003 -4.5609655e-004  9.9015553e-003 -7.3094508e-003 -7.3094508e-003 -7.2604301e-003 
 6.6875196e-001  1.8749986e-002 -9.2134411e-003 -4.7460102e-004  9.2256563e-003 -7.1732444e-003 -7.1732444e-003 -7.1306881e-003 
 6.8125200e-001  1.8749986e-002 -8.5124345e-003 -4.8848469e-004  8.5264388e-003 -7.0704278e-003 -7.0704278e-003 -7.0340778e-003 
 6.9375205e-001  1.8749986e-002 -7.7948016e-003 -4.9749011e-004  7.8106611e-003 -7.0021078e-003 -7.0021078e-003 -6.9716047e-003 
 7.0625210e-001  1.8749986e-002 -7.0676249e-003 -5.0142524e-004  7.0853899e-003 -6.9688992e-003 -6.9688992e-003 -6.9437977e-003 
 7.1875215e-001  1.8749986e-002 -6.3381908e-003 -5.0019205e-004  6.3578971e-003 -6.9708661e-003 -6.9708661e-003 -6.9506546e-003 
 7.3125219e-001  1.8749986e-002 -5.6139058e-003 -4.9371104e-004  5.6355735e-003 -7.0076091e-003 -7.0076091e-003 -6.9917291e-003 
 7.4375224e-001  1.8749986e-002 -4.9022115e-003 -4.8200073e-004  4.9258503e-003 -7.0781466e-003 -7.0781466e-003 -7.0660147e-003 
 7.5625229e-001  1.8749986e-002 -4.2104647e-003 -4.6515701e-004  4.2360811e-003 -7.1809427e-003 -7.1809427e-003 -7.1719703e-003 
 7.6875234e-001  1.8749986e-002 -3.5458189e-003 -4.4336723e-004  3.5734305e-003 -7.3139127e-003 -7.3139127e-003 -7.3075281e-003 
 7.8125238e-001  1.8749986e-002 -2.9151076e-003 -4.1689305e-004  2.9447670e-003 -7.4744495e-003 -7.4744495e-003 -7.4701137e-003 
 7.9375243e-001  1.8749986e-002 -2.3247276e-003 -3.8608231e-004  2.3565690e-003 -7.6594376e-003 -7.6594376e-003 -7.6566609e-003 
 8.0625248e-001  1.8749986e-002 -1.7805300e-003 -3.5135369e-004  1.8148654e-003 -7.8653060e-003 -7.8653060e-003 -7.8636594e-003 
 8.1875253e-001  1.8749986e-002 -1.2877069e-003 -3.1320658e-004  1.3252499e-003 -8.0880504e-003 -8.0880504e-003 -8.0871722e-003 