Variables = "x","y", "Velocity_x", "Velocity_y", "Velocity_whole value", "Pressure", "Absolute pressure", "Total pressure"
Zone i=254, j=22
-4.0000000e+001  0.0000000e+000  0.0000000e+000  0.0000000e+000  0.0000000e+000  1.3287196e+000  1.3287196e+000  1.3287196e+000 
-3.9875000e+001  0.0000000e+000  0.0000000e+000  0.0000000e+000  0.0000000e+000  1.2822676e+000  1.2822676e+000  1.2822676e+000 
-3.9625000e+001  0.0000000e+000  0.0000000e+000  0.0000000e+000  0.0000000e+000  1.1893635e+000  1.1893635e+000  1.1893635e+000 
-3.9375000e+001  0.0000000e+000  0.0000000e+000  0.0000000e+000  0.0000000e+000  1.1599404e+000  1.1599404e+000  1.1599404e+000 
-3.9125000e+001  0.0000000e+000  0.0000000e+000  0.0000000e+000  0.0000000e+000  1.1485115e+000  1.1485115e+000  1.1485115e+000 
-3.8875000e+001  0.0000000e+000  0.0000000e+000  0.0000000e+000  0.0000000e+000  1.1377759e+000  1.1377759e+000  1.1377759e+000 
-3.8625000e+001  0.0000000e+000  0.0000000e+000  0.0000000e+000  0.0000000e+000  1.1262043e+000  1.1262043e+000  1.1262043e+000 
-3.8375000e+001  0.0000000e+000  0.0000000e+000  0.0000000e+000  0.0000000e+000  1.1151754e+000  1.1151754e+000  1.1151754e+000 
-3.8125000e+001  0.0000000e+000  0.0000000e+000  0.0000000e+000  0.0000000e+000  1.1048663e+000  1.1048663e+000  1.1048663e+000 
-3.7875000e+001  0.0000000e+000  0.0000000e+000  0.0000000e+000  0.0000000e+000  1.0951328e+000  1.0951328e+000  1.0951328e+000 
-3.7625000e+001  0.0000000e+000  0.0000000e+000  0.0000000e+000  0.0000000e+000  1.0858854e+000  1.0858854e+000  1.0858854e+000 
-3.7375000e+001  0.0000000e+000  0.0000000e+000  0.0000000e+000  0.0000000e+000  1.0770470e+000  1.0770470e+000  1.0770470e+000 
-3.7125000e+001  0.0000000e+000  0.0000000e+000  0.0000000e+000  0.0000000e+000  1.0685639e+000  1.0685639e+000  1.0685639e+000 
-3.6875000e+001  0.0000000e+000  0.0000000e+000  0.0000000e+000  0.0000000e+000  1.0603912e+000  1.0603912e+000  1.0603912e+000 
-3.6625000e+001  0.0000000e+000  0.0000000e+000  0.0000000e+000  0.0000000e+000  1.0524957e+000  1.0524957e+000  1.0524957e+000 
-3.6375000e+001  0.0000000e+000  0.0000000e+000  0.0000000e+000  0.0000000e+000  1.0448472e+000  1.0448472e+000  1.0448472e+000 
-3.6125000e+001  0.0000000e+000  0.0000000e+000  0.0000000e+000  0.0000000e+000  1.0374223e+000  1.0374223e+000  1.0374223e+000 
-3.5875000e+001  0.0000000e+000  0.0000000e+000  0.0000000e+000  0.0000000e+000  1.0301985e+000  1.0301985e+000  1.0301985e+000 
-3.5625000e+001  0.0000000e+000  0.0000000e+000  0.0000000e+000  0.0000000e+000  1.0231586e+000  1.0231586e+000  1.0231586e+000 
-3.5375000e+001  0.0000000e+000  0.0000000e+000  0.0000000e+000  0.0000000e+000  1.0162879e+000  1.0162879e+000  1.0162879e+000 
-3.5125000e+001  0.0000000e+000  0.0000000e+000  0.0000000e+000  0.0000000e+000  1.0095730e+000  1.0095730e+000  1.0095730e+000 
-3.4875000e+001  0.0000000e+000  0.0000000e+000  0.0000000e+000  0.0000000e+000  1.0030017e+000  1.0030017e+000  1.0030017e+000 
-3.4625000e+001  0.0000000e+000  0.0000000e+000  0.0000000e+000  0.0000000e+000  9.9656343e-001  9.9656343e-001  9.9656343e-001 
-3.4375000e+001  0.0000000e+000  0.0000000e+000  0.0000000e+000  0.0000000e+000  9.9024892e-001  9.9024892e-001  9.9024892e-001 
-3.4125000e+001  0.0000000e+000  0.0000000e+000  0.0000000e+000  0.0000000e+000  9.8405004e-001  9.8405004e-001  9.8405004e-001 
-3.3875000e+001  0.0000000e+000  0.0000000e+000  0.0000000e+000  0.0000000e+000  9.7795945e-001  9.7795945e-001  9.7795945e-001 
-3.3625000e+001  0.0000000e+000  0.0000000e+000  0.0000000e+000  0.0000000e+000  9.7197008e-001  9.7197008e-001  9.7197008e-001 
-3.3375000e+001  0.0000000e+000  0.0000000e+000  0.0000000e+000  0.0000000e+000  9.6607667e-001  9.6607667e-001  9.6607667e-001 
-3.3125000e+001  0.0000000e+000  0.0000000e+000  0.0000000e+000  0.0000000e+000  9.6027422e-001  9.6027422e-001  9.6027422e-001 
-3.2875000e+001  0.0000000e+000  0.0000000e+000  0.0000000e+000  0.0000000e+000  9.5455623e-001  9.5455623e-001  9.5455623e-001 
-3.2625000e+001  0.0000000e+000  0.0000000e+000  0.0000000e+000  0.0000000e+000  9.4891948e-001  9.4891948e-001  9.4891948e-001 
-3.2375000e+001  0.0000000e+000  0.0000000e+000  0.0000000e+000  0.0000000e+000  9.4335949e-001  9.4335949e-001  9.4335949e-001 
-3.2125000e+001  0.0000000e+000  0.0000000e+000  0.0000000e+000  0.0000000e+000  9.3787241e-001  9.3787241e-001  9.3787241e-001 
-3.1875000e+001  0.0000000e+000  0.0000000e+000  0.0000000e+000  0.0000000e+000  9.3245488e-001  9.3245488e-001  9.3245488e-001 
-3.1625000e+001  0.0000000e+000  0.0000000e+000  0.0000000e+000  0.0000000e+000  9.2710364e-001  9.2710364e-001  9.2710364e-001 
-3.1375000e+001  0.0000000e+000  0.0000000e+000  0.0000000e+000  0.0000000e+000  9.2181557e-001  9.2181557e-001  9.2181557e-001 
-3.1125000e+001  0.0000000e+000  0.0000000e+000  0.0000000e+000  0.0000000e+000  9.1658753e-001  9.1658753e-001  9.1658753e-001 
-3.0875000e+001  0.0000000e+000  0.0000000e+000  0.0000000e+000  0.0000000e+000  9.1141796e-001  9.1141796e-001  9.1141796e-001 
-3.0625000e+001  0.0000000e+000  0.0000000e+000  0.0000000e+000  0.0000000e+000  9.0630382e-001  9.0630382e-001  9.0630382e-001 
-3.0375000e+001  0.0000000e+000  0.0000000e+000  0.0000000e+000  0.0000000e+000  9.0124249e-001  9.0124249e-001  9.0124249e-001 
-3.0125000e+001  0.0000000e+000  0.0000000e+000  0.0000000e+000  0.0000000e+000  8.9623231e-001  8.9623231e-001  8.9623231e-001 
-2.9875000e+001  0.0000000e+000  0.0000000e+000  0.0000000e+000  0.0000000e+000  8.9127225e-001  8.9127225e-001  8.9127225e-001 
-2.9625000e+001  0.0000000e+000  0.0000000e+000  0.0000000e+000  0.0000000e+000  8.8635880e-001  8.8635880e-001  8.8635880e-001 
-2.9375000e+001  0.0000000e+000  0.0000000e+000  0.0000000e+000  0.0000000e+000  8.8149065e-001  8.8149065e-001  8.8149065e-001 
-2.9125000e+001  0.0000000e+000  0.0000000e+000  0.0000000e+000  0.0000000e+000  8.7666684e-001  8.7666684e-001  8.7666684e-001 
-2.8875000e+001  0.0000000e+000  0.0000000e+000  0.0000000e+000  0.0000000e+000  8.7188536e-001  8.7188536e-001  8.7188536e-001 
-2.8625000e+001  0.0000000e+000  0.0000000e+000  0.0000000e+000  0.0000000e+000  8.6714530e-001  8.6714530e-001  8.6714530e-001 
-2.8375000e+001  0.0000000e+000  0.0000000e+000  0.0000000e+000  0.0000000e+000  8.6244446e-001  8.6244446e-001  8.6244446e-001 
-2.8125000e+001  0.0000000e+000  0.0000000e+000  0.0000000e+000  0.0000000e+000  8.5778201e-001  8.5778201e-001  8.5778201e-001 
-2.7875000e+001  0.0000000e+000  0.0000000e+000  0.0000000e+000  0.0000000e+000  8.5315633e-001  8.5315633e-001  8.5315633e-001 
-2.7625000e+001  0.0000000e+000  0.0000000e+000  0.0000000e+000  0.0000000e+000  8.4856665e-001  8.4856665e-001  8.4856665e-001 
-2.7375000e+001  0.0000000e+000  0.0000000e+000  0.0000000e+000  0.0000000e+000  8.4401220e-001  8.4401220e-001  8.4401220e-001 
-2.7125000e+001  0.0000000e+000  0.0000000e+000  0.0000000e+000  0.0000000e+000  8.3949059e-001  8.3949059e-001  8.3949059e-001 
-2.6875000e+001  0.0000000e+000  0.0000000e+000  0.0000000e+000  0.0000000e+000  8.3500212e-001  8.3500212e-001  8.3500212e-001 
-2.6625000e+001  0.0000000e+000  0.0000000e+000  0.0000000e+000  0.0000000e+000  8.3054566e-001  8.3054566e-001  8.3054566e-001 
-2.6375000e+001  0.0000000e+000  0.0000000e+000  0.0000000e+000  0.0000000e+000  8.2611918e-001  8.2611918e-001  8.2611918e-001 
-2.6125000e+001  0.0000000e+000  0.0000000e+000  0.0000000e+000  0.0000000e+000  8.2172352e-001  8.2172352e-001  8.2172352e-001 
-2.5875000e+001  0.0000000e+000  0.0000000e+000  0.0000000e+000  0.0000000e+000  8.1735653e-001  8.1735653e-001  8.1735653e-001 
-2.5625000e+001  0.0000000e+000  0.0000000e+000  0.0000000e+000  0.0000000e+000  8.1301725e-001  8.1301725e-001  8.1301725e-001 
-2.5375000e+001  0.0000000e+000  0.0000000e+000  0.0000000e+000  0.0000000e+000  8.0870646e-001  8.0870646e-001  8.0870646e-001 
-2.5125000e+001  0.0000000e+000  0.0000000e+000  0.0000000e+000  0.0000000e+000  8.0442172e-001  8.0442172e-001  8.0442172e-001 
-2.4875000e+001  0.0000000e+000  0.0000000e+000  0.0000000e+000  0.0000000e+000  8.0016297e-001  8.0016297e-001  8.0016297e-001 
-2.4625000e+001  0.0000000e+000  0.0000000e+000  0.0000000e+000  0.0000000e+000  7.9593015e-001  7.9593015e-001  7.9593015e-001 
-2.4375000e+001  0.0000000e+000  0.0000000e+000  0.0000000e+000  0.0000000e+000  7.9172218e-001  7.9172218e-001  7.9172218e-001 
-2.4125000e+001  0.0000000e+000  0.0000000e+000  0.0000000e+000  0.0000000e+000  7.8753787e-001  7.8753787e-001  7.8753787e-001 
-2.3875000e+001  0.0000000e+000  0.0000000e+000  0.0000000e+000  0.0000000e+000  7.8337705e-001  7.8337705e-001  7.8337705e-001 
-2.3625000e+001  0.0000000e+000  0.0000000e+000  0.0000000e+000  0.0000000e+000  7.7923936e-001  7.7923936e-001  7.7923936e-001 
-2.3375000e+001  0.0000000e+000  0.0000000e+000  0.0000000e+000  0.0000000e+000  7.7512395e-001  7.7512395e-001  7.7512395e-001 
-2.3125000e+001  0.0000000e+000  0.0000000e+000  0.0000000e+000  0.0000000e+000  7.7103025e-001  7.7103025e-001  7.7103025e-001 
-2.2875000e+001  0.0000000e+000  0.0000000e+000  0.0000000e+000  0.0000000e+000  7.6695824e-001  7.6695824e-001  7.6695824e-001 
-2.2625000e+001  0.0000000e+000  0.0000000e+000  0.0000000e+000  0.0000000e+000  7.6290691e-001  7.6290691e-001  7.6290691e-001 
-2.2375000e+001  0.0000000e+000  0.0000000e+000  0.0000000e+000  0.0000000e+000  7.5887549e-001  7.5887549e-001  7.5887549e-001 
-2.2125000e+001  0.0000000e+000  0.0000000e+000  0.0000000e+000  0.0000000e+000  7.5486463e-001  7.5486463e-001  7.5486463e-001 
-2.1875000e+001  0.0000000e+000  0.0000000e+000  0.0000000e+000  0.0000000e+000  7.5087243e-001  7.5087243e-001  7.5087243e-001 
-2.1625000e+001  0.0000000e+000  0.0000000e+000  0.0000000e+000  0.0000000e+000  7.4689919e-001  7.4689919e-001  7.4689919e-001 
-2.1375000e+001  0.0000000e+000  0.0000000e+000  0.0000000e+000  0.0000000e+000  7.4294513e-001  7.4294513e-001  7.4294513e-001 
-2.1125000e+001  0.0000000e+000  0.0000000e+000  0.0000000e+000  0.0000000e+000  7.3900902e-001  7.3900902e-001  7.3900902e-001 
-2.0875000e+001  0.0000000e+000  0.0000000e+000  0.0000000e+000  0.0000000e+000  7.3509049e-001  7.3509049e-001  7.3509049e-001 
-2.0625000e+001  0.0000000e+000  0.0000000e+000  0.0000000e+000  0.0000000e+000  7.3118913e-001  7.3118913e-001  7.3118913e-001 
-2.0375000e+001  0.0000000e+000  0.0000000e+000  0.0000000e+000  0.0000000e+000  7.2730505e-001  7.2730505e-001  7.2730505e-001 
-2.0125000e+001  0.0000000e+000  0.0000000e+000  0.0000000e+000  0.0000000e+000  7.2343767e-001  7.2343767e-001  7.2343767e-001 
-1.9875000e+001  0.0000000e+000  0.0000000e+000  0.0000000e+000  0.0000000e+000  7.1958625e-001  7.1958625e-001  7.1958625e-001 
-1.9625000e+001  0.0000000e+000  0.0000000e+000  0.0000000e+000  0.0000000e+000  7.1575058e-001  7.1575058e-001  7.1575058e-001 
-1.9375000e+001  0.0000000e+000  0.0000000e+000  0.0000000e+000  0.0000000e+000  7.1193135e-001  7.1193135e-001  7.1193135e-001 
-1.9125000e+001  0.0000000e+000  0.0000000e+000  0.0000000e+000  0.0000000e+000  7.0812684e-001  7.0812684e-001  7.0812684e-001 
-1.8875000e+001  0.0000000e+000  0.0000000e+000  0.0000000e+000  0.0000000e+000  7.0433712e-001  7.0433712e-001  7.0433712e-001 
-1.8625000e+001  0.0000000e+000  0.0000000e+000  0.0000000e+000  0.0000000e+000  7.0056212e-001  7.0056212e-001  7.0056212e-001 
-1.8375000e+001  0.0000000e+000  0.0000000e+000  0.0000000e+000  0.0000000e+000  6.9680136e-001  6.9680136e-001  6.9680136e-001 
-1.8125000e+001  0.0000000e+000  0.0000000e+000  0.0000000e+000  0.0000000e+000  6.9305497e-001  6.9305497e-001  6.9305497e-001 
-1.7875000e+001  0.0000000e+000  0.0000000e+000  0.0000000e+000  0.0000000e+000  6.8932295e-001  6.8932295e-001  6.8932295e-001 
-1.7625000e+001  0.0000000e+000  0.0000000e+000  0.0000000e+000  0.0000000e+000  6.8560314e-001  6.8560314e-001  6.8560314e-001 
-1.7375000e+001  0.0000000e+000  0.0000000e+000  0.0000000e+000  0.0000000e+000  6.8189734e-001  6.8189734e-001  6.8189734e-001 
-1.7125000e+001  0.0000000e+000  0.0000000e+000  0.0000000e+000  0.0000000e+000  6.7820472e-001  6.7820472e-001  6.7820472e-001 
-1.6875000e+001  0.0000000e+000  0.0000000e+000  0.0000000e+000  0.0000000e+000  6.7452425e-001  6.7452425e-001  6.7452425e-001 
-1.6625000e+001  0.0000000e+000  0.0000000e+000  0.0000000e+000  0.0000000e+000  6.7085630e-001  6.7085630e-001  6.7085630e-001 
-1.6375000e+001  0.0000000e+000  0.0000000e+000  0.0000000e+000  0.0000000e+000  6.6720128e-001  6.6720128e-001  6.6720128e-001 
-1.6125000e+001  0.0000000e+000  0.0000000e+000  0.0000000e+000  0.0000000e+000  6.6355807e-001  6.6355807e-001  6.6355807e-001 
-1.5875000e+001  0.0000000e+000  0.0000000e+000  0.0000000e+000  0.0000000e+000  6.5992570e-001  6.5992570e-001  6.5992570e-001 
-1.5625000e+001  0.0000000e+000  0.0000000e+000  0.0000000e+000  0.0000000e+000  6.5630561e-001  6.5630561e-001  6.5630561e-001 
-1.5375000e+001  0.0000000e+000  0.0000000e+000  0.0000000e+000  0.0000000e+000  6.5269756e-001  6.5269756e-001  6.5269756e-001 
-1.5125000e+001  0.0000000e+000  0.0000000e+000  0.0000000e+000  0.0000000e+000  6.4909893e-001  6.4909893e-001  6.4909893e-001 
-1.4875000e+001  0.0000000e+000  0.0000000e+000  0.0000000e+000  0.0000000e+000  6.4551252e-001  6.4551252e-001  6.4551252e-001 
-1.4625000e+001  0.0000000e+000  0.0000000e+000  0.0000000e+000  0.0000000e+000  6.4193684e-001  6.4193684e-001  6.4193684e-001 
-1.4375000e+001  0.0000000e+000  0.0000000e+000  0.0000000e+000  0.0000000e+000  6.3837093e-001  6.3837093e-001  6.3837093e-001 
-1.4125000e+001  0.0000000e+000  0.0000000e+000  0.0000000e+000  0.0000000e+000  6.3481545e-001  6.3481545e-001  6.3481545e-001 
-1.3875000e+001  0.0000000e+000  0.0000000e+000  0.0000000e+000  0.0000000e+000  6.3127083e-001  6.3127083e-001  6.3127083e-001 
-1.3625000e+001  0.0000000e+000  0.0000000e+000  0.0000000e+000  0.0000000e+000  6.2773520e-001  6.2773520e-001  6.2773520e-001 
-1.3375000e+001  0.0000000e+000  0.0000000e+000  0.0000000e+000  0.0000000e+000  6.2420964e-001  6.2420964e-001  6.2420964e-001 
-1.3125000e+001  0.0000000e+000  0.0000000e+000  0.0000000e+000  0.0000000e+000  6.2069422e-001  6.2069422e-001  6.2069422e-001 
-1.2875000e+001  0.0000000e+000  0.0000000e+000  0.0000000e+000  0.0000000e+000  6.1718726e-001  6.1718726e-001  6.1718726e-001 
-1.2625000e+001  0.0000000e+000  0.0000000e+000  0.0000000e+000  0.0000000e+000  6.1369008e-001  6.1369008e-001  6.1369008e-001 
-1.2375000e+001  0.0000000e+000  0.0000000e+000  0.0000000e+000  0.0000000e+000  6.1020184e-001  6.1020184e-001  6.1020184e-001 
-1.2125000e+001  0.0000000e+000  0.0000000e+000  0.0000000e+000  0.0000000e+000  6.0672265e-001  6.0672265e-001  6.0672265e-001 
-1.1875000e+001  0.0000000e+000  0.0000000e+000  0.0000000e+000  0.0000000e+000  6.0325205e-001  6.0325205e-001  6.0325205e-001 
-1.1625000e+001  0.0000000e+000  0.0000000e+000  0.0000000e+000  0.0000000e+000  5.9978992e-001  5.9978992e-001  5.9978992e-001 
-1.1375000e+001  0.0000000e+000  0.0000000e+000  0.0000000e+000  0.0000000e+000  5.9633625e-001  5.9633625e-001  5.9633625e-001 
-1.1125000e+001  0.0000000e+000  0.0000000e+000  0.0000000e+000  0.0000000e+000  5.9289098e-001  5.9289098e-001  5.9289098e-001 
-1.0875000e+001  0.0000000e+000  0.0000000e+000  0.0000000e+000  0.0000000e+000  5.8945388e-001  5.8945388e-001  5.8945388e-001 
-1.0625000e+001  0.0000000e+000  0.0000000e+000  0.0000000e+000  0.0000000e+000  5.8602411e-001  5.8602411e-001  5.8602411e-001 
-1.0375000e+001  0.0000000e+000  0.0000000e+000  0.0000000e+000  0.0000000e+000  5.8260304e-001  5.8260304e-001  5.8260304e-001 
-1.0125000e+001  0.0000000e+000  0.0000000e+000  0.0000000e+000  0.0000000e+000  5.7918942e-001  5.7918942e-001  5.7918942e-001 
-9.8750000e+000  0.0000000e+000  0.0000000e+000  0.0000000e+000  0.0000000e+000  5.7578254e-001  5.7578254e-001  5.7578254e-001 
-9.6250000e+000  0.0000000e+000  0.0000000e+000  0.0000000e+000  0.0000000e+000  5.7238418e-001  5.7238418e-001  5.7238418e-001 
-9.3750000e+000  0.0000000e+000  0.0000000e+000  0.0000000e+000  0.0000000e+000  5.6899267e-001  5.6899267e-001  5.6899267e-001 
-9.1250000e+000  0.0000000e+000  0.0000000e+000  0.0000000e+000  0.0000000e+000  5.6560826e-001  5.6560826e-001  5.6560826e-001 
-8.8750000e+000  0.0000000e+000  0.0000000e+000  0.0000000e+000  0.0000000e+000  5.6223053e-001  5.6223053e-001  5.6223053e-001 
-8.6250000e+000  0.0000000e+000  0.0000000e+000  0.0000000e+000  0.0000000e+000  5.5886042e-001  5.5886042e-001  5.5886042e-001 
-8.3750000e+000  0.0000000e+000  0.0000000e+000  0.0000000e+000  0.0000000e+000  5.5549639e-001  5.5549639e-001  5.5549639e-001 
-8.1250000e+000  0.0000000e+000  0.0000000e+000  0.0000000e+000  0.0000000e+000  5.5213946e-001  5.5213946e-001  5.5213946e-001 
-7.8750000e+000  0.0000000e+000  0.0000000e+000  0.0000000e+000  0.0000000e+000  5.4878908e-001  5.4878908e-001  5.4878908e-001 
-7.6250000e+000  0.0000000e+000  0.0000000e+000  0.0000000e+000  0.0000000e+000  5.4544502e-001  5.4544502e-001  5.4544502e-001 
-7.3750000e+000  0.0000000e+000  0.0000000e+000  0.0000000e+000  0.0000000e+000  5.4210711e-001  5.4210711e-001  5.4210711e-001 
-7.1250000e+000  0.0000000e+000  0.0000000e+000  0.0000000e+000  0.0000000e+000  5.3877574e-001  5.3877574e-001  5.3877574e-001 
-6.8750000e+000  0.0000000e+000  0.0000000e+000  0.0000000e+000  0.0000000e+000  5.3545034e-001  5.3545034e-001  5.3545034e-001 
-6.6250000e+000  0.0000000e+000  0.0000000e+000  0.0000000e+000  0.0000000e+000  5.3213096e-001  5.3213096e-001  5.3213096e-001 
-6.3750000e+000  0.0000000e+000  0.0000000e+000  0.0000000e+000  0.0000000e+000  5.2881724e-001  5.2881724e-001  5.2881724e-001 
-6.1250000e+000  0.0000000e+000  0.0000000e+000  0.0000000e+000  0.0000000e+000  5.2550936e-001  5.2550936e-001  5.2550936e-001 
-5.8750000e+000  0.0000000e+000  0.0000000e+000  0.0000000e+000  0.0000000e+000  5.2220702e-001  5.2220702e-001  5.2220702e-001 
-5.6250000e+000  0.0000000e+000  0.0000000e+000  0.0000000e+000  0.0000000e+000  5.1891047e-001  5.1891047e-001  5.1891047e-001 
-5.3750000e+000  0.0000000e+000  0.0000000e+000  0.0000000e+000  0.0000000e+000  5.1561928e-001  5.1561928e-001  5.1561928e-001 
-5.1250000e+000  0.0000000e+000  0.0000000e+000  0.0000000e+000  0.0000000e+000  5.1233345e-001  5.1233345e-001  5.1233345e-001 
-4.8750000e+000  0.0000000e+000  0.0000000e+000  0.0000000e+000  0.0000000e+000  5.0905299e-001  5.0905299e-001  5.0905299e-001 
-4.6250000e+000  0.0000000e+000  0.0000000e+000  0.0000000e+000  0.0000000e+000  5.0577778e-001  5.0577778e-001  5.0577778e-001 
-4.3750000e+000  0.0000000e+000  0.0000000e+000  0.0000000e+000  0.0000000e+000  5.0250763e-001  5.0250763e-001  5.0250763e-001 
-4.1250000e+000  0.0000000e+000  0.0000000e+000  0.0000000e+000  0.0000000e+000  4.9924251e-001  4.9924251e-001  4.9924251e-001 
-3.8750000e+000  0.0000000e+000  0.0000000e+000  0.0000000e+000  0.0000000e+000  4.9598229e-001  4.9598229e-001  4.9598229e-001 
-3.6250000e+000  0.0000000e+000  0.0000000e+000  0.0000000e+000  0.0000000e+000  4.9272662e-001  4.9272662e-001  4.9272662e-001 
-3.3750000e+000  0.0000000e+000  0.0000000e+000  0.0000000e+000  0.0000000e+000  4.8947617e-001  4.8947617e-001  4.8947617e-001 
-3.1250000e+000  0.0000000e+000  0.0000000e+000  0.0000000e+000  0.0000000e+000  4.8622999e-001  4.8622999e-001  4.8622999e-001 
-2.8750000e+000  0.0000000e+000  0.0000000e+000  0.0000000e+000  0.0000000e+000  4.8298857e-001  4.8298857e-001  4.8298857e-001 
-2.6250000e+000  0.0000000e+000  0.0000000e+000  0.0000000e+000  0.0000000e+000  4.7975206e-001  4.7975206e-001  4.7975206e-001 
-2.3750000e+000  0.0000000e+000  0.0000000e+000  0.0000000e+000  0.0000000e+000  4.7651917e-001  4.7651917e-001  4.7651917e-001 
-2.1250000e+000  0.0000000e+000  0.0000000e+000  0.0000000e+000  0.0000000e+000  4.7329128e-001  4.7329128e-001  4.7329128e-001 
-1.8750000e+000  0.0000000e+000  0.0000000e+000  0.0000000e+000  0.0000000e+000  4.7006750e-001  4.7006750e-001  4.7006750e-001 
-1.6250000e+000  0.0000000e+000  0.0000000e+000  0.0000000e+000  0.0000000e+000  4.6684754e-001  4.6684754e-001  4.6684754e-001 
-1.3750000e+000  0.0000000e+000  0.0000000e+000  0.0000000e+000  0.0000000e+000  4.6363208e-001  4.6363208e-001  4.6363208e-001 
-1.1250000e+000  0.0000000e+000  0.0000000e+000  0.0000000e+000  0.0000000e+000  4.6042076e-001  4.6042076e-001  4.6042076e-001 
-8.7500000e-001  0.0000000e+000  0.0000000e+000  0.0000000e+000  0.0000000e+000  4.5721295e-001  4.5721295e-001  4.5721295e-001 
-6.2500000e-001  0.0000000e+000  0.0000000e+000  0.0000000e+000  0.0000000e+000  4.5400947e-001  4.5400947e-001  4.5400947e-001 
-3.7500000e-001  0.0000000e+000  0.0000000e+000  0.0000000e+000  0.0000000e+000  4.5080993e-001  4.5080993e-001  4.5080993e-001 
-1.2500000e-001  0.0000000e+000  0.0000000e+000  0.0000000e+000  0.0000000e+000  4.4761354e-001  4.4761354e-001  4.4761354e-001 
 1.2500000e-001  0.0000000e+000  0.0000000e+000  0.0000000e+000  0.0000000e+000  4.4442141e-001  4.4442141e-001  4.4442141e-001 
 3.7500000e-001  0.0000000e+000  0.0000000e+000  0.0000000e+000  0.0000000e+000  4.4123307e-001  4.4123307e-001  4.4123307e-001 
 6.2500000e-001  0.0000000e+000  0.0000000e+000  0.0000000e+000  0.0000000e+000  4.3804774e-001  4.3804774e-001  4.3804774e-001 
 8.7500000e-001  0.0000000e+000  0.0000000e+000  0.0000000e+000  0.0000000e+000  4.3486652e-001  4.3486652e-001  4.3486652e-001 
 1.1250000e+000  0.0000000e+000  0.0000000e+000  0.0000000e+000  0.0000000e+000  4.3168870e-001  4.3168870e-001  4.3168870e-001 
 1.3750000e+000  0.0000000e+000  0.0000000e+000  0.0000000e+000  0.0000000e+000  4.2851394e-001  4.2851394e-001  4.2851394e-001 
 1.6250000e+000  0.0000000e+000  0.0000000e+000  0.0000000e+000  0.0000000e+000  4.2534244e-001  4.2534244e-001  4.2534244e-001 
 1.8750000e+000  0.0000000e+000  0.0000000e+000  0.0000000e+000  0.0000000e+000  4.2217526e-001  4.2217526e-001  4.2217526e-001 
 2.1250000e+000  0.0000000e+000  0.0000000e+000  0.0000000e+000  0.0000000e+000  4.1901025e-001  4.1901025e-001  4.1901025e-001 
 2.3750000e+000  0.0000000e+000  0.0000000e+000  0.0000000e+000  0.0000000e+000  4.1584933e-001  4.1584933e-001  4.1584933e-001 
 2.6250000e+000  0.0000000e+000  0.0000000e+000  0.0000000e+000  0.0000000e+000  4.1269198e-001  4.1269198e-001  4.1269198e-001 
 2.8750000e+000  0.0000000e+000  0.0000000e+000  0.0000000e+000  0.0000000e+000  4.0953699e-001  4.0953699e-001  4.0953699e-001 
 3.1250000e+000  0.0000000e+000  0.0000000e+000  0.0000000e+000  0.0000000e+000  4.0638649e-001  4.0638649e-001  4.0638649e-001 
 3.3750000e+000  0.0000000e+000  0.0000000e+000  0.0000000e+000  0.0000000e+000  4.0323964e-001  4.0323964e-001  4.0323964e-001 
 3.6250000e+000  0.0000000e+000  0.0000000e+000  0.0000000e+000  0.0000000e+000  4.0009639e-001  4.0009639e-001  4.0009639e-001 
 3.8750000e+000  0.0000000e+000  0.0000000e+000  0.0000000e+000  0.0000000e+000  3.9695692e-001  3.9695692e-001  3.9695692e-001 
 4.1250000e+000  0.0000000e+000  0.0000000e+000  0.0000000e+000  0.0000000e+000  3.9382428e-001  3.9382428e-001  3.9382428e-001 
 4.3750000e+000  0.0000000e+000  0.0000000e+000  0.0000000e+000  0.0000000e+000  3.9069626e-001  3.9069626e-001  3.9069626e-001 
 4.6250000e+000  0.0000000e+000  0.0000000e+000  0.0000000e+000  0.0000000e+000  3.8757589e-001  3.8757589e-001  3.8757589e-001 
 4.8750000e+000  0.0000000e+000  0.0000000e+000  0.0000000e+000  0.0000000e+000  3.8446575e-001  3.8446575e-001  3.8446575e-001 
 5.1250000e+000  0.0000000e+000  0.0000000e+000  0.0000000e+000  0.0000000e+000  3.8136762e-001  3.8136762e-001  3.8136762e-001 
 5.3750000e+000  0.0000000e+000  0.0000000e+000  0.0000000e+000  0.0000000e+000  3.7828621e-001  3.7828621e-001  3.7828621e-001 
 5.6250000e+000  0.0000000e+000  0.0000000e+000  0.0000000e+000  0.0000000e+000  3.7522894e-001  3.7522894e-001  3.7522894e-001 
 5.8750000e+000  0.0000000e+000  0.0000000e+000  0.0000000e+000  0.0000000e+000  3.7220299e-001  3.7220299e-001  3.7220299e-001 
 6.1250000e+000  0.0000000e+000  0.0000000e+000  0.0000000e+000  0.0000000e+000  3.6922297e-001  3.6922297e-001  3.6922297e-001 
 6.3750000e+000  0.0000000e+000  0.0000000e+000  0.0000000e+000  0.0000000e+000  3.6630771e-001  3.6630771e-001  3.6630771e-001 
 6.6250000e+000  0.0000000e+000  0.0000000e+000  0.0000000e+000  0.0000000e+000  3.6348221e-001  3.6348221e-001  3.6348221e-001 
 6.8750000e+000  0.0000000e+000  0.0000000e+000  0.0000000e+000  0.0000000e+000  3.6078700e-001  3.6078700e-001  3.6078700e-001 
 7.1250000e+000  0.0000000e+000  0.0000000e+000  0.0000000e+000  0.0000000e+000  3.5827583e-001  3.5827583e-001  3.5827583e-001 
 7.3750000e+000  0.0000000e+000  0.0000000e+000  0.0000000e+000  0.0000000e+000  3.5602444e-001  3.5602444e-001  3.5602444e-001 
 7.6250000e+000  0.0000000e+000  0.0000000e+000  0.0000000e+000  0.0000000e+000  3.5414118e-001  3.5414118e-001  3.5414118e-001 
 7.8750000e+000  0.0000000e+000  0.0000000e+000  0.0000000e+000  0.0000000e+000  3.5276881e-001  3.5276881e-001  3.5276881e-001 
 8.1250000e+000  0.0000000e+000  0.0000000e+000  0.0000000e+000  0.0000000e+000  3.5211080e-001  3.5211080e-001  3.5211080e-001 
 8.3750000e+000  0.0000000e+000  0.0000000e+000  0.0000000e+000  0.0000000e+000  3.5238078e-001  3.5238078e-001  3.5238078e-001 
 8.6250000e+000  0.0000000e+000  0.0000000e+000  0.0000000e+000  0.0000000e+000  3.5395327e-001  3.5395327e-001  3.5395327e-001 
 8.8750000e+000  0.0000000e+000  0.0000000e+000  0.0000000e+000  0.0000000e+000  3.5694540e-001  3.5694540e-001  3.5694540e-001 
 9.1250000e+000  0.0000000e+000  0.0000000e+000  0.0000000e+000  0.0000000e+000  3.6194214e-001  3.6194214e-001  3.6194214e-001 
 9.3750000e+000  0.0000000e+000  0.0000000e+000  0.0000000e+000  0.0000000e+000  3.6823040e-001  3.6823040e-001  3.6823040e-001 
 9.6250000e+000  0.0000000e+000  0.0000000e+000  0.0000000e+000  0.0000000e+000  3.7651983e-001  3.7651983e-001  3.7651983e-001 
 9.8750000e+000  0.0000000e+000  0.0000000e+000  0.0000000e+000  0.0000000e+000  3.8387319e-001  3.8387319e-001  3.8387319e-001 
 1.0130526e+001  8.5551050e-003  0.0000000e+000  0.0000000e+000  0.0000000e+000  3.9112693e-001  3.9112693e-001  3.9112693e-001 
 1.0389345e+001  4.2629272e-002  0.0000000e+000  0.0000000e+000  0.0000000e+000  3.9734304e-001  3.9734304e-001  3.9734304e-001 
 1.0641505e+001  1.1019471e-001  0.0000000e+000  0.0000000e+000  0.0000000e+000  4.0246695e-001  4.0246695e-001  4.0246695e-001 
 1.0882685e+001  2.1009511e-001  0.0000000e+000  0.0000000e+000  0.0000000e+000  4.0768132e-001  4.0768132e-001  4.0768132e-001 
 1.1108760e+001  3.4062099e-001  0.0000000e+000  0.0000000e+000  0.0000000e+000  4.1306993e-001  4.1306993e-001  4.1306993e-001 
 1.1315865e+001  4.9953955e-001  0.0000000e+000  0.0000000e+000  0.0000000e+000  4.1872820e-001  4.1872820e-001  4.1872820e-001 
 1.1500460e+001  6.8413174e-001  0.0000000e+000  0.0000000e+000  0.0000000e+000  4.2431137e-001  4.2431137e-001  4.2431137e-001 
 1.1659380e+001  8.9123845e-001  0.0000000e+000  0.0000000e+000  0.0000000e+000  4.2953780e-001  4.2953780e-001  4.2953780e-001 
 1.1789906e+001  1.1173158e+000  0.0000000e+000  0.0000000e+000  0.0000000e+000  4.3224162e-001  4.3224162e-001  4.3224162e-001 
 1.1889805e+001  1.3584964e+000  0.0000000e+000  0.0000000e+000  0.0000000e+000  4.3011740e-001  4.3011740e-001  4.3011740e-001 
 1.1957371e+001  1.6106545e+000  0.0000000e+000  0.0000000e+000  0.0000000e+000  4.1330722e-001  4.1330722e-001  4.1330722e-001 
 1.1991446e+001  1.8694739e+000  0.0000000e+000  0.0000000e+000  0.0000000e+000  3.7104207e-001  3.7104207e-001  3.7104207e-001 
 1.2000000e+001  2.1250000e+000  0.0000000e+000  0.0000000e+000  0.0000000e+000  2.6209956e-001  2.6209956e-001  2.6209956e-001 
 1.2000000e+001  2.3750000e+000  0.0000000e+000  0.0000000e+000  0.0000000e+000  1.0684010e-001  1.0684010e-001  1.0684010e-001 
 1.2000000e+001  2.6250000e+000  0.0000000e+000  0.0000000e+000  0.0000000e+000 -1.0741213e-002 -1.0741213e-002 -1.0741213e-002 
 1.2000000e+001  2.8750000e+000  0.0000000e+000  0.0000000e+000  0.0000000e+000 -9.0309411e-002 -9.0309411e-002 -9.0309411e-002 
 1.2000000e+001  3.1250000e+000  0.0000000e+000  0.0000000e+000  0.0000000e+000 -1.3851003e-001 -1.3851003e-001 -1.3851003e-001 
 1.2000000e+001  3.3750000e+000  0.0000000e+000  0.0000000e+000  0.0000000e+000 -1.6312793e-001 -1.6312793e-001 -1.6312793e-001 
 1.2000000e+001  3.6250000e+000  0.0000000e+000  0.0000000e+000  0.0000000e+000 -1.7248361e-001 -1.7248361e-001 -1.7248361e-001 
 1.2000000e+001  3.8750000e+000  0.0000000e+000  0.0000000e+000  0.0000000e+000 -1.7182593e-001 -1.7182593e-001 -1.7182593e-001 
 1.2000000e+001  4.1250000e+000  0.0000000e+000  0.0000000e+000  0.0000000e+000 -1.6533655e-001 -1.6533655e-001 -1.6533655e-001 
 1.2000000e+001  4.3750000e+000  0.0000000e+000  0.0000000e+000  0.0000000e+000 -1.5516871e-001 -1.5516871e-001 -1.5516871e-001 
 1.2000000e+001  4.6250000e+000  0.0000000e+000  0.0000000e+000  0.0000000e+000 -1.4268327e-001 -1.4268327e-001 -1.4268327e-001 
 1.2000000e+001  4.8750000e+000  0.0000000e+000  0.0000000e+000  0.0000000e+000 -1.2894674e-001 -1.2894674e-001 -1.2894674e-001 
 1.2000000e+001  5.1250000e+000  0.0000000e+000  0.0000000e+000  0.0000000e+000 -1.1486797e-001 -1.1486797e-001 -1.1486797e-001 
 1.2000000e+001  5.3750000e+000  0.0000000e+000  0.0000000e+000  0.0000000e+000 -1.0103270e-001 -1.0103270e-001 -1.0103270e-001 
 1.2000000e+001  5.6250000e+000  0.0000000e+000  0.0000000e+000  0.0000000e+000 -8.7789670e-002 -8.7789670e-002 -8.7789670e-002 
 1.2000000e+001  5.8750000e+000  0.0000000e+000  0.0000000e+000  0.0000000e+000 -7.5347915e-002 -7.5347915e-002 -7.5347915e-002 
 1.2000000e+001  6.1250000e+000  0.0000000e+000  0.0000000e+000  0.0000000e+000 -6.3828856e-002 -6.3828856e-002 -6.3828856e-002 
 1.2000000e+001  6.3750000e+000  0.0000000e+000  0.0000000e+000  0.0000000e+000 -5.3296678e-002 -5.3296678e-002 -5.3296678e-002 